<?xml version="1.0"?>
<VTKFile type="PolyData" version="0.1" byte_order="LittleEndian" >
<PolyData>
<Piece NumberOfPoints="83946" NumberOfVerts="0" NumberOfLines="41973" NumberOfStrips="0" NumberOfPolys="0">
<Points>
<DataArray type="Float32" NumberOfComponents="3" format="ascii">
0.00878002 0.0381829 0.0765107 0.00868415 0.0405576 0.07468 0.00878002 0.0381829 0.0765107 0.00852514 0.0408063 0.0779433 0.00878002 0.0381829 0.0765107 0.0116011 0.0382962 0.077525 0.00878002 0.0381829 0.0765107 0.00953939 0.0366936 0.0790017 0.0181531 0.0330209 0.0674216 0.0181698 0.0357099 0.0687516 0.0181531 0.0330209 0.0674216 0.0157649 0.0348221 0.0671935 0.0181531 0.0330209 0.0674216 0.0191476 0.0332948 0.0702387 0.00514018 0.0270822 0.00551052 0.0074363 0.0289581 0.00596709 0.00514018 0.0270822 0.00551052 0.00333257 0.0285906 0.00365128 0.00514018 0.0270822 0.00551052 0.00423254 0.0282465 0.00812206 0.00514018 0.0270822 0.00551052 0.00643868 0.0255201 0.00330289 0.00514018 0.0270822 0.00551052 0.00720515 0.0250052 0.0061599 0.00514018 0.0270822 0.00551052 0.00332463 0.0252211 0.0070072 0.0417416 0.00149995 0.0517465 0.0437333 0.00365602 0.0511266 0.0417416 0.00149995 0.0517465 0.0406663 0.00367351 0.0535127 0.0417416 0.00149995 0.0517465 0.0423736 0.00149999 0.0546792 0.0417416 0.00149995 0.0517465 0.0417416 -2.41995e-08 0.0517465 0.0515 0.0432025 0.0781301 0.0515 0.0435 0.0811153 0.0515 0.0432025 0.0781301 0.053 0.0432025 0.0781301 0.02319 0.0265545 0.093615 0.0221864 0.0288162 0.0919187 0.02319 0.0265545 0.093615 0.0207011 0.0280317 0.0944043 0.02319 0.0265545 0.093615 0.0258255 0.0272447 0.0948709 0.02319 0.0265545 0.093615 0.0226777 0.0255407 0.0963916 0.0515 0.0276886 0.0562922 0.0515 0.0276918 0.0592921 0.0515 0.0276886 0.0562922 0.053 0.0276886 0.0562922 0.028174 0.0218921 0.0659208 0.0286252 0.0248122 0.0664393 0.028174 0.0218921 0.0659208 0.0306971 0.0228016 0.0672651 0.028174 0.0218921 0.0659208 0.0266512 0.0224455 0.0684456 0.0334405 0.010113 0.0652311 0.0348515 0.011871 0.0672105 0.0334405 0.010113 0.0652311 0.0317317 0.0115743 0.0672172 0.0393613 0.00534329 0.0169095 0.0417181 0.00640261 0.0153854 0.0393613 0.00534329 0.0169095 0.03797 0.00763004 0.0155549 0.0393613 0.00534329 0.0169095 0.0417468 0.00640579 0.0183859 0.0393613 0.00534329 0.0169095 0.03809 0.00720902 0.018885 0.0393613 0.00534329 0.0169095 0.0407437 0.00351561 0.0188455 0.0393613 0.00534329 0.0169095 0.037845 0.00418834 0.019226 0.0167879 0.00404204 0.113872 0.0154535 0.00654334 0.114854 0.0167879 0.00404204 0.113872 0.0183609 0.00397299 0.111319 0.0167879 0.00404204 0.113872 0.0197709 0.00435389 0.113939 0.0167879 0.00404204 0.113872 0.0159792 0.00400879 0.116761 0.0299711 0.0384601 0.0788998 0.0317767 0.0403242 0.0773948 0.0299711 0.0384601 0.0788998 0.0288431 0.0400687 0.0766327 0.0299711 0.0384601 0.0788998 0.030962 0.0409492 0.0802499 0.0299711 0.0384601 0.0788998 0.0321717 0.0365575 0.0781668 0.0299711 0.0384601 0.0788998 0.0324908 0.0383828 0.0805261 0.0299711 0.0384601 0.0788998 0.0294697 0.0388796 0.0818277 0.0384777 0.0154132 0.0670708 0.040762 0.0173214 0.0674457 0.0259624 0.00149999 0.101893 0.0256735 0.00442943 0.102472 0.0259624 0.00149999 0.101893 0.0276063 0.00149997 0.0993837 0.0259624 0.00149999 0.101893 0.0272505 0.0015 0.104603 0.0259624 0.00149999 0.101893 0.0259624 -3.44174e-09 0.101893 0.00149991 0.0270702 0.00850756 0.00423254 0.0282465 0.00812206 0.00149991 0.0270702 0.00850756 0.00184825 0.0294791 0.00675393 0.00149991 0.0270702 0.00850756 0.0015 0.0297285 0.00989788 0.00149991 0.0270702 0.00850756 0.00332463 0.0252211 0.0070072 0.00149991 0.0270702 0.00850756 0.00384295 0.0259432 0.0100042 0.00149991 0.0270702 0.00850756 0.00149992 0.0270613 0.0115075 0.00149991 0.0270702 0.00850756 -4.69848e-08 0.0270702 0.00850756 0.0221474 0.012267 0.00397931 0.0239304 0.0135132 0.00604525 0.0221474 0.012267 0.00397931 0.0213332 0.0122563 0.00686666 0.014924 0.0280462 0.0373228 0.0157476 0.0309081 0.0376846 0.014924 0.0280462 0.0373228 0.017844 0.0279263 0.0380004 0.014924 0.0280462 0.0373228 0.0158325 0.0285465 0.0401378 0.014924 0.0280462 0.0373228 0.0129042 0.0285341 0.0394866 0.0113538 0.0189786 0.0368534 0.0128457 0.0206267 0.0388678 0.0113538 0.0189786 0.0368534 0.00970139 0.0183733 0.0392831 0.0383645 0.0193687 0.0686123 0.0400285 0.0213611 0.0671084 0.0383645 0.0193687 0.0686123 0.0399342 0.0214426 0.0701073 0.0383645 0.0193687 0.0686123 0.0382382 0.0193383 0.0716095 0.0488268 0.0435 0.00525248 0.0515001 0.0435001 0.00389144 0.0488268 0.0435 0.00525248 0.048829 0.0435001 0.0082524 0.0488268 0.0435 0.00525248 0.046055 0.0426854 0.00606095 0.0488268 0.0435 0.00525248 0.0488268 0.045 0.00525248 0.021165 0.0180916 0.0137747 0.0208832 0.0198022 0.0113264 0.021165 0.0180916 0.0137747 0.0235957 0.0193149 0.0125117 0.021165 0.0180916 0.0137747 0.0227171 0.0189228 0.0162037 0.021165 0.0180916 0.0137747 0.0221547 0.0156264 0.0151687 0.017807 0.0361648 0.00149999 0.019449 0.0381942 0.00297817 0.017807 0.0361648 0.00149999 0.014824 0.0364835 0.00149992 0.017807 0.0361648 0.00149999 0.0208 0.0359605 0.00149996 0.017807 0.0361648 0.00149999 0.0187597 0.0345724 0.00385726 0.017807 0.0361648 0.00149999 0.017807 0.0361648 -6.68563e-09 0.0124783 0.0265558 0.0230127 0.0132563 0.0287588 0.0248946 0.0348962 0.0435001 0.0627074 0.0377313 0.0435001 0.0617265 0.0348962 0.0435001 0.0627074 0.0319712 0.0431374 0.0632666 0.0348962 0.0435001 0.0627074 0.0348962 0.045 0.0627074 0.0299804 0.0434998 0.0694805 0.032873 0.0435 0.070276 0.0418615 0.0208255 0.07739 0.0406521 0.0220521 0.0749338 0.0418615 0.0208255 0.07739 0.0401021 0.0232433 0.0776316 0.0418615 0.0208255 0.07739 0.0425436 0.0229865 0.0793558 0.0418615 0.0208255 0.07739 0.0446831 0.0198084 0.0774517 0.0418615 0.0208255 0.07739 0.0413835 0.0203476 0.0803128 0.031011 0.0275223 0.0766736 0.0301282 0.0280738 0.0794872 0.032748 0.0281903 0.0497853 0.0324732 0.031159 0.0494517 0.032748 0.0281903 0.0497853 0.0321339 0.0290601 0.05259 0.0218941 0.0117958 0.0283553 0.023051 0.0129928 0.0258595 0.0218941 0.0117958 0.0283553 0.0243896 0.0134507 0.0285384 0.0218941 0.0117958 0.0283553 0.0206825 0.0145235 0.0280521 0.0218941 0.0117958 0.0283553 0.0245017 0.0103568 0.0279956 0.0218941 0.0117958 0.0283553 0.0207821 0.0103779 0.0307537 0.00943513 0.0225288 0.035906 0.00797984 0.0247597 0.0345259 0.00943513 0.0225288 0.035906 0.00989235 0.0253695 0.0367553 0.00420733 0.0303189 0.0199198 0.00373943 0.0314204 0.0226708 0.0330756 0.00149996 0.0615614 0.0349842 0.00374809 0.0621118 0.0330756 0.00149996 0.0615614 0.0321056 0.00402958 0.060273 0.0330756 0.00149996 0.0615614 0.0346277 0.0015 0.0641287 0.0330756 0.00149996 0.0615614 0.0316283 0.00149996 0.0641891 0.0330756 0.00149996 0.0615614 0.0330756 -1.88213e-08 0.0615614 0.049643 0.00618446 0.0455811 0.0515 0.00747099 0.0475549 0.0156897 0.0203491 0.0379545 0.0165114 0.0230689 0.0369917 0.0156897 0.0203491 0.0379545 0.0137753 0.0220098 0.0363492 0.0156897 0.0203491 0.0379545 0.0171371 0.0216078 0.0402611 0.0156897 0.0203491 0.0379545 0.0186009 0.0209917 0.0376202 0.0156897 0.0203491 0.0379545 0.0152867 0.0190992 0.0406517 0.00933039 0.0283936 0.0939435 0.00802961 0.0300986 0.0960413 0.0327623 0.0261828 0.0520146 0.032748 0.0281903 0.0497853 0.0327623 0.0261828 0.0520146 0.0347264 0.0278747 0.0535244 0.0452076 0.0405704 0.0766678 0.0453648 0.0418103 0.0793951 0.0452076 0.0405704 0.0766678 0.0478845 0.0407312 0.0780125 0.010322 0.0407176 0.101405 0.010257 0.0435 0.102524 0.010322 0.0407176 0.101405 0.0113232 0.0412398 0.104184 0.010322 0.0407176 0.101405 0.00792075 0.0416633 0.102934 0.0254904 0.0257629 0.0230567 0.0255701 0.0282904 0.0246707 0.0254904 0.0257629 0.0230567 0.0282226 0.0262495 0.0241959 0.0254904 0.0257629 0.0230567 0.0247867 0.025559 0.0259657 0.0469489 0.0041033 0.103443 0.0472799 0.00672691 0.10486 0.0469489 0.0041033 0.103443 0.0498025 0.00397469 0.102526 0.0469489 0.0041033 0.103443 0.0444165 0.00405828 0.105051 0.00677932 0.0268939 0.058525 0.00580125 0.0281245 0.0559699 0.00677932 0.0268939 0.058525 0.00965378 0.027508 0.0579248 0.00677932 0.0268939 0.058525 0.00835946 0.0286408 0.0603828 0.0386915 0.00607737 0.0512927 0.0381916 0.00696735 0.0541137 0.0461744 0.0015 0.0592283 0.0491626 0.00174564 0.0591272 0.0461744 0.0015 0.0592283 0.0451016 0.00149998 0.0620299 0.0461744 0.0015 0.0592283 0.0461744 -9.11377e-10 0.0592283 0.0335824 0.0182692 0.0793307 0.031907 0.0196181 0.081422 0.0487273 0.0130576 0.0228061 0.0488291 0.0159138 0.0218943 0.0487273 0.0130576 0.0228061 0.0515001 0.0137796 0.0236953 0.0487273 0.0130576 0.0228061 0.0492309 0.0138461 0.0256565 0.0487273 0.0130576 0.0228061 0.046121 0.0138342 0.0240727 0.00274813 0.0129586 0.111879 0.00415847 0.015305 0.113106 0.00274813 0.0129586 0.111879 0.00286972 0.012184 0.114775 0.0169929 0.023098 0.0878461 0.0187878 0.0254131 0.0871993 0.0169929 0.023098 0.0878461 0.0185711 0.0244244 0.0900256 0.0169929 0.023098 0.0878461 0.0198543 0.0222334 0.0875915 0.0169929 0.023098 0.0878461 0.0165424 0.0222687 0.0906938 0.024128 0.0435 0.0233166 0.0271257 0.0435 0.0231974 0.024128 0.0435 0.0233166 0.0212275 0.0435001 0.0240828 0.024128 0.0435 0.0233166 0.024034 0.0435 0.0263151 0.024128 0.0435 0.0233166 0.024128 0.045 0.0233166 0.0312144 0.0216115 0.087341 0.03417 0.0221033 0.0874906 0.0312144 0.0216115 0.087341 0.0304022 0.0224754 0.0900967 0.00920374 0.031229 0.033502 0.0107884 0.0309636 0.0360355 0.0180085 0.0283629 0.0175058 0.0164734 0.0309171 0.0178511 0.0180085 0.0283629 0.0175058 0.0208447 0.0287849 0.0166241 0.0180085 0.0283629 0.0175058 0.0168434 0.0286025 0.0202599 0.045884 0.0210302 0.0920266 0.0449919 0.0223976 0.0895098 0.045884 0.0210302 0.0920266 0.0487632 0.0218047 0.0923592 0.045884 0.0210302 0.0920266 0.0465244 0.023957 0.0921807 0.045884 0.0210302 0.0920266 0.0435821 0.0229526 0.0920991 0.045884 0.0210302 0.0920266 0.0439602 0.0197953 0.0939691 0.00547801 0.034738 0.0135101 0.0040106 0.0372585 0.0128075 0.00547801 0.034738 0.0135101 0.00819014 0.0360199 0.0134815 0.00547801 0.034738 0
[...]
<PointData Scalars="F_N">
<DataArray type="Float32" Name="F_N" format="ascii">
0.00307223 0.00307223 0.00979054 0.00979054 0.00144466 0.00144466 0.0118865 0.0118865 0.00495512 0.00495512 4.4966e-05 4.4966e-05 0.00672304 0.00672304 0.00247467 0.00247467 0.0116543 0.0116543 0.0185882 0.0185882 0.0109454 0.0109454 0.00294532 0.00294532 0.0037985 0.0037985 0.00403873 0.00403873 0.0040038 0.0040038 0.0107838 0.0107838 0.000231332 0.000231332 0.0140218 0.0140218 0 0 0.00241333 0.00241333 0.000220117 0.000220117 0.00169997 0.00169997 0.00437045 0.00437045 0.0201887 0.0201887 6.40121e-17 6.40121e-17 0.00180664 0.00180664 0.00280069 0.00280069 0.00743026 0.00743026 0.00827992 0.00827992 0.00116808 0.00116808 0.0234926 0.0234926 0.00649241 0.00649241 0.0126708 0.0126708 0.0044663 0.0044663 0.00942153 0.00942153 0.0230913 0.0230913 0.00222438 0.00222438 0.000732929 0.000732929 0.000126024 0.000126024 0.00165166 0.00165166 0.000803723 0.000803723 0.0180969 0.0180969 0.000743234 0.000743234 0.000705173 0.000705173 0.0117924 0.0117924 0.000227518 0.000227518 0.00229137 0.00229137 0.000474974 0.000474974 0.00159301 0.00159301 0.00296496 0.00296496 0.000540042 0.000540042 0.00175098 0.00175098 0.0089617 0.0089617 0.000108693 0.000108693 0.0101288 0.0101288 0.00714358 0.00714358 0.012347 0.012347 0.000351599 0.000351599 0.00980369 0.00980369 0.00532643 0.00532643 0.000674928 0.000674928 0.00184582 0.00184582 0.0024338 0.0024338 0.0137744 0.0137744 0.0133967 0.0133967 0.00199214 0.00199214 0.00194417 0.00194417 0.00620947 0.00620947 0.00502716 0.00502716 0.0224953 0.0224953 0.0305903 0.0305903 0.00782343 0.00782343 0.000249758 0.000249758 0.00986931 0.00986931 0.00234251 0.00234251 0.0137369 0.0137369 0.000993358 0.000993358 0.00226044 0.00226044 0.000295385 0.000295385 2.19473e-05 2.19473e-05 0.00269172 0.00269172 0.00534314 0.00534314 0.00510764 0.00510764 0.00387976 0.00387976 1.72971e-05 1.72971e-05 0.000182384 0.000182384 0.00103668 0.00103668 0.00978581 0.00978581 0.00224376 0.00224376 0.00484661 0.00484661 0.000775462 0.000775462 0.00418301 0.00418301 0.010113 0.010113 8.93523e-05 8.93523e-05 0.00834552 0.00834552 0.00796986 0.00796986 0.000877313 0.000877313 0.000385514 0.000385514 0.000783294 0.000783294 0.0153516 0.0153516 0.000344785 0.000344785 0.00316465 0.00316465 0.0126453 0.0126453 0.00122345 0.00122345 0.00495763 0.00495763 0.00554634 0.00554634 0.00696169 0.00696169 0.00025592 0.00025592 0.00646719 0.00646719 0.00708749 0.00708749 0.00588155 0.00588155 0.0114247 0.0114247 4.65356e-05 4.65356e-05 0.0194852 0.0194852 0.00673201 0.00673201 0.0067048 0.0067048 0.0113368 0.0113368 0.00298399 0.00298399 0.00125024 0.00125024 0.00138139 0.00138139 0.00251541 0.00251541 0.00436907 0.00436907 0.00706132 0.00706132 0.00238922 0.00238922 0.0256722 0.0256722 0.00445181 0.00445181 0.00109309 0.00109309 0.000155279 0.000155279 0.00860346 0.00860346 0.00136241 0.00136241 0.00956368 0.00956368 0.00536843 0.00536843 0.00017272 0.00017272 0.00650192 0.00650192 0.000159346 0.000159346 0.00444475 0.00444475 0.00365247 0.00365247 0.000350195 0.000350195 0.0163976 0.0163976 0.000275141 0.000275141 0.000381146 0.000381146 0.000889323 0.000889323 0.0035632 0.0035632 0.00302381 0.00302381 0.000901192 0.000901192 0.0201959 0.0201959 1.94674e-05 1.94674e-05 0.00184729 0.00184729 0.00599927 0.00599927 0.000189543 0.000189543 0.000125081 0.000125081 0.00914757 0.00914757 0.00986601 0.00986601 0.00197523 0.00197523 0.00365304 0.00365304 0.00622294 0.00622294 0.00226226 0.00226226 0.000262059 0.000262059 0.000285628 0.000285628 9.00083e-05 9.00083e-05 0.00407208 0.00407208 0.00213918 0.00213918 4.60289e-05 4.60289e-05 0.0173081 0.0173081 0.00425345 0.00425345 6.29857e-05 6.29857e-05 0.00201936 0.00201936 0.0134282 0.0134282 0.00260394 0.00260394 1.95857e-05 1.95857e-05 0.00294683 0.00294683 0.00673219 0.00673219 0.000428302 0.000428302 0.000747122 0.000747122 0.00418005 0.00418005 0.000449878 0.000449878 0.00185808 0.00185808 0.00129115 0.00129115 0.00884551 0.00884551 0.00502437 0.00502437 0.00310931 0.00310931 0.00993197 0.00993197 0.0123367 0.0123367 0.000876906 0.000876906 0.00787625 0.00787625 0.0141563 0.0141563 0.00603878 0.00603878 0.0122976 0.0122976 0.00533105 0.00533105 0.00602512 0.00602512 0.00244755 0.00244755 0.000797421 0.000797421 0.00816796 0.00816796 0.00813732 0.00813732 0.00177637 0.00177637 9.04905e-05 9.04905e-05 0.0239694 0.0239694 0.0238536 0.0238536 0.0015385 0.0015385 0.0029889 0.0029889 0.0184281 0.0184281 0.00465276 0.00465276 0.00281223 0.00281223 0.00176464 0.00176464 0.00113864 0.00113864 3.39219e-05 3.39219e-05 0.0167622 0.0167622 0.0256923 0.0256923 0.0136739 0.0136739 0.00581147 0.00581147 0.00737843 0.00737843 0.0172556 0.0172556 0.0138392 0.0138392 0.00107394 0.00107394 0.000205581 0.000205581 0.000740978 0.000740978 0.00240882 0.00240882 0.00919316 0.00919316 0.000145174 0.000145174 0.0112845 0.0112845 0.0191236 0.0191236 0.000300842 0.000300842 0.0115612 0.0115612 0 0 0.0051818 0.0051818 0.0028301 0.0028301 0.0155069 0.0155069 0.00630159 0.00630159 0.00165207 0.00165207 0.00143256 0.00143256 0.00236588 0.00236588 0.00164781 0.00164781 0.00387651 0.00387651 0.00498877 0.00498877 0.00827511 0.00827511 0.00217422 0.00217422 0.00374348 0.00374348 0.00355371 0.00355371 0.000687278 0.000687278 0.0354524 0.0354524 0.0023144 0.0023144 0.00812603 0.00812603 0.000792058 0.000792058 0.00318103 0.00318103 5.83089e-05 5.83089e-05 0.00434885 0.00434885 0.00314417 0.00314417 0.0118876 0.0118876 0.000459667 0.000459667 0.00184209 0.00184209 0.00162076 0.00162076 0.0015558 0.0015558 0.000171511 0.000171511 0.0245599 0.0245599 0.00531048 0.00531048 0.00329177 0.00329177 0.00713123 0.00713123 0.00573451 0.00573451 0.00833741 0.00833741 0.000196726 0.000196726 0.00727544 0.00727544 0.00151751 0.00151751 0.00192618 0.00192618 0.0103469 0.0103469 2.17809e-05 2.17809e-05 0.0301208 0.0301208 0.00858941 0.00858941 0.0153277 0.0153277 0.00599393 0.00599393 0.0137917 0.0137917 0.000783833 0.000783833 0.00218012 0.00218012 0.000725462 0.000725462 0.000158261 0.000158261 0.00234576 0.00234576 0.00338546 0.00338546 0.00310552 0.00310552 0.00109881 0.00109881 0.00212056 0.00212056 0.00692769 0.00692769 0.0110225 0.0110225 0.00235153 0.00235153 0.00231505 0.00231505 0.00277019 0.00277019 0.00727163 0.00727163 0.00176867 0.00176867 0.000624786 0.000624786 0.0177086 0.0177086 0.004244 0.004244 0.000837008 0.000837008 0.000408257 0.000408257 0.000496543 0.000496543 0.000101315 0.000101315 0.00419624 0.00419624 0.000637712 0.000637712 0.0112986 0.0112986 0.000307889 0.000307889 0.0157625 0.0157625 0.00903543 0.00903543 0.00247568 0.00247568 0.00132986 0.00132986 0.00061012 0.00061012 0.00366383 0.00366383 0.000637147 0.000637147 0.000791469 0.000791469 0.000866473 0.000866473 0.00555677 0.00555677 0.00677281 0.00677281 0.000107482 0.000107482 0.00247337 0.00247337 0.00910196 0.00910196 0.00662873 0.00662873 7.89163e-05 7.89163e-05 0.000538824 0.000538824 0.000867486 0.000867486 0.0242916 0.0242916 0.025502 0.025502 0.000305322 0.000305322 0.0023533 0.0023533 0.000811535 0.000811535 0.00698522 0.00698522 0.0132154 0.0132154 0.00251452 0.00251452 0.00104009 0.00104009 0.000171807 0.000171807 0.00097511 0.00097511 0.000252869 0.000252869 0.00106486 0.00106486 0.00058366 0.00058366 0.000634551 0.000634551 0.00295356 0.00295356 0.00335477 0.00335477 0.0294452 0.0294452 0.00069137 0.00069137 9.71159e-05 9.71159e-05 0.000213424 0.000213424 0.00122933 0.00122933 0.000533177 0.000533177 0.00610462 0.00610462 0.000259365 0.000259365 0.000105342 0.000105342 0.00307718 0.00307718 0.00345379 0.00345379 0.000685473 0.000685473 0.00209297 0.00209297 0.00356846 0.00356846 0.00927749 0.00927749 0.00283729 0.00283729 0.00693214 0.00693214 0.00393038 0.00393038 0.00112215 0.00112215 0.0115606 0.0115606 0.00792964 0.00792964 0.0106899 0.0106899 0.00880084 0.00880084 0.00619638 0.00619638 0.00811958 0.00811958 0.00236003 0.00236003 0.0191382 0.0191382 0.00337688 0.00337688 0.000794069 0.000794069 0.00327905 0.00327905 0.0184518 0.0184518 0.00135303 0.00135303 0.00443347 0.00443347 0.00731391 0.00731391 0.0134001 0.0134001 0.00758515 0.00758515 0.00227565 0.00227565 0.00724598 0.00724598 0.00386803 0.00386803 0.00656492 0.00656492 0.00498295 0.00498295 0.0159772 0.0159772 0.000299594 0.000299594 0.00656296 0.00656296 0.00717744 0.00717744 0.000117652 0.000117652 0.00011439 0.00011439 0.00875449 0.00875449 0.000416176 0.000416176 0.000233081 0.000233081 0.000359948 0.000359948 0.00680506 0.00680506 6.17858e-06 6.17858e-06 0.00349441 0.00349441 0.00512143 0.00512143 3.40922e-06 3.40922e-06 0.000281135 0.000281135 0.000351371 0.000351371 0.00936135 0.00936135 0.00644099 0.00644099 1.96067e-05 1.96067e-05 0.000893735 0.000893735 0.000530121 0.000530121 0.00105804 0.00105804 0.0194159 0.0194159 0.00776541 0.00776541 0.000372999 0.000372999 0.00037045 0.00037045 0.0128831 0.0128831 0.000411219 0.000411219 0.00158463 0.00158463 0.000893426 0.000893426 0.00415321 0.00415321 7.79227e-05 7.79227e-05 0.000361667 0.000361667 0.000123055 0.000123055 0.0272967 0.0272967 0.000250622 0.000250622 0.000320266 0.000320266 0.00242955 0.00242955 0.00128155 0.00128155 0.00487374 0.00487374 0.000951677 0.000951677 0.00408069 0.00408069 0.000168299 0.000168299 0.021566 0.021566 0.0382544 0.0382544 0.00256856 0.00256856 0.000216877 0.000216877 0.000345911 0.000345911 0.000865055 0.000865055 0.00522067 0.00522067 0.000171057 0.000171057 0.0184838 0.0184838 0.00671455 0.00671455 0.0259549 0.0259549 0.00388588 0.00388588 0.0164301 0.0164301 0.00111185 0.00111185 5.74581e-05 5.74581e-05 0.00171875 0.00171875 0.00167335 0.00167335 0.000206516 0.000206516 0.00621612 0.00621612 0.00192936 0.00192936 0.00381022 0.00381022 0.00491394 0.00491394 0.00480218 0.00480218 0.00107846 0.00107846 0.00364349 0.00364349 0.00548606 0.00548606 3.71261e-06 3.71261e-06 0.00539623 0.00539623 0.000419006 0.000419006 0.0041213 0.0041213 6.80056e-05 6.80056e-05 0.000380853 0.000380853 0.00332081 0.00332081 0.000655139 0.000655139 0.00853802 0.00853802 0.00543014 0.00543014 0.00307291 0.00307291 0.00540244 0.00540244 0.0254894 0.0254894 0.00386567 0.00386567 0.00849504 0.00849504 0.00738766 0.00738766 0.00460117 0.00460117 0.00759217 0.00759217 0.00436551 0.00436551 0.00546673 0.00546673 0.00977303 0.00977303 0.00444734 0.00444734 0.00289692 0.00289692 0.000466256 0.000466256 0.00595012 0.00595012 0.0170202 0.0170202 0.00254371 0.00254371 0.000345732 0.000345732 0.0172224 0.0172224 0.0287668 0.0287668 0.0575668 0.0575668 0.000417972 0.000417972 0.00407961 0.00407961 0.00228373 0.00228373 0.0039045 0.0039045 0.00106632 0.00106632 0.00124912 0.00124912 0.000705533 0.000705533 0.0134003 0.0134003 0.00464529 0.00464529 0.00121111 0.00121111 0.00213945 0.00213945 0.00315909 0.00315909 0.00607851 0.00607851 0.00330911 0.00330911 0.00360828 0.00360828 0.0118645 0.0118645 0.0149146 0.0149146 0.0121381 0.0121381 0.00983936 0.00983936 0.00100944 0.00100944 0.00210046 0.00210046 0.000887751 0.000887751 0.0094769 0.0094769 0.000471933 0.000471933 0.0156677 0.0156677 8.77159e-05 8.77159e-05 0.0114881 0.0114881 0.0102064 0.0102064 0.000109923 0.000109923 0.00489351 0.00489351 0.00498866 0.00498866 0.000478435 0.000478435 0.00202743 0.00202743 0.0244214 0.0244214 0.00380836 0.00380836 0.00105136 0.00105136 0.00690825 0.00690825 0.00780702 0.00780702 5.96152e-17 5.96152e-17 4.82577e-06 4.82577e-06 0.000516284 0.000516284 0.00361134 0.00361134 0.000425741 0.000425741 0.0136315 0.0136315 0.00376573 0.00376573 0.000313792 0.000313792 0.00709017 0.00709017 0.000361875 0.000361875 0.000326143 0.000326143 0.00926215 0.00926215 0.00109019 0.00109019 0.0119064 0.0119064 0.00537035 0.00537035 0.000304548 0.000304548 0.0105657 0.0105657 0.0104215 0.0104215 0.000132907 0.000132907 0.000236238 0.000236238 0.00432983 0.00432983 0.000225787 0.000225787 0.00314139 0.00314139 0.00165008 0.00165008 0.00202854 0.00202854 0.00213555 0.00213555 0.0147442 0.0147442 0.00524588 0.00524588 0.0375506 0.0375506 0.00677326 0.00677326 0.000279285 0.000279285 0.00312639 0.00312639 0.0152493 0.0152493 0.0219459 0.0219459 0.0191153 0.0191153 0.0103401 0.0103401 3.89977e-05 3.89977e-05 8.33284e-05 8.33284e-05 0.00590485 0.00590485 0.00206291 0.00206291 0.00657234 0.00657234 0.00715316 0.00715316 0.000280997 0.000280997 0.0183408 0.0183408 0.0147252 0.0147252 0.00156189 0.00156189 0.00571377 0.00571377 0.00722602 0.00722602 0.00944482 0.00944482 0.00320508 0.00320508 0.0145377 0.0145377 5.65126e-05 5.65126e-05 0.0058732 0.0058732 0.00370115 0.00370115 0.0161684 0.0161684 0.00576036 0.00576036 0.00116696 0.00116696 0.00993888 0.00993888 0.0106533 0.0106533 0.000204354 0.000204354 0.00208029 0.00208029 4.72006e-07 4.72006e-07 0.0107682 0.0107682 0.00190476 0.00190476 0.00828478 0.00828478 0.0088533 0.0088533 0.000884117 0.000884117 0.000424417 0.000424417 0.00280881 0.00280881 0.00023573 0.00023573 0.00372208 0.00372208 0.0194441 0.0194441 5.27509e-05 5.27509e-05 0.0157493 0.0157493 0 0 0.00316172 0.00316172 0.00740881 0.00740881 0.000593064 0.000593064 0.000289037 0.000289037 0.0140878 0.0140878 0.0144133 0.0144133 0.000336412 0.000336412 0.00679257 0.00679257 0.000250716 0.000250716 0.000740218 0.000740218 0.0022426 0.0022426 0.00228692 0.00228692 0.0127118 0.0127118 0.0109997 0.0109997 0.00317734 0.00317734 0.00435921 0.00435921 0.0140623 0.0140623 0.00071027 0.00071027 0.000477438 0.000477438 6.86926e-17 6.86926e-17 0.00377441 0.00377441 8.53356e-05 8.53356e-05 0.000403124 0.000403124 0.00263028 0.00263028 0.000398392 0.000398392 0.00345593 0.00345593 0.00745492 0.00745492 0.000114257 0.000114257 4.11669e-17 4.11669e-17 0.00508127 0.00508127 0.00852273 0.00852273 0.00888136 0.00888136 0.0214566 0.0214566 0.016134 0.016134 0.00810519 0.00810519 0.00119889 0.00119889 0.00276425 0.00276425 0.00620137 0.00620137 0.00103595 0.00103595 0.0039245 0.0039245 1.46484e-05 1.46484e-05 0.00119608 0.00119608 0.000152246 0.000152246 0.000319311 0.000319311 5.75971e-05 5.75971e-05 0.00135132 0.00135132 0.00390594 0.00390594 0.0322965 0.0322965 0.000297396 0.000297396 0.00116123 0.00116123 0.00352047 0.00352047 0.000211861 0.000211861 0.000907083 0.000907083 0.00357979 0.00357979 0.00794384 0.00794384 0.00956436 0.00956436 0.00133975 0.00133975 0.0255553 0.0255553 0.00733055 0.00733055 0.0265329 0.0265329 0.000382187 0.000382187 0.00126471 0.00126471 0.0101312 0.0101312 0.00900006 0.00900006 0.000394661 0.000394661 0.00102438 0.00102438 0.00176853 0.00176853 0.00668862 0.00668862 0.00306905 0.00306905 0.00564283 0.00564283 0.00023296 0.00023296 0.000230443 0.000230443 0.00573569 0.00573569 7.28112e-05 7.28112e-05 0.0018902 0.0018902 0.0142487 0.0142487 0.00127245 0.00127245 0.0449022 0.0449022 0.00121794 0.00121794 0.00122862 0.00122862 0.000427475 0.000427475 0.00488925 0.00488925 0.02065 0.02065 0.00179774 0.00179774 0.000294503 0.000294503 0.00486623 0.00486623 0.00678631 0.00678631 0.00157481 0.00157481 0.00884226 0.00884226 0.00302814 0.00302814 0.00962539 0.00962539 0.0372816 0.0372816 0.00450038 0.00450038 0.000153311 0.000153311 0.000289419 0.000289419 0.000346966 0.000346966 0.00293009 0.00293009 0.00323225 0.00323225 0.0053198 0.0053198 0.0140152 0.0140152 0.0146524 0.0146524 6.0406e-05 6.0406e-05 0.000722229 0.000722229 0.00102073 0.00102073 0.00333162 0.00333162 0.0170079 0.0170079 0.000402936 0.000402936 0.00267238 0.00267238 0.010177 0.010177 0.00820716 0.00820716 0.000954386 0.000954386 0.000481981 0.000481981 0.000229151 0.000229151 0.000197048 0.000197048 0.000247704 0.000247704 1.16439e-05 1.16439e-05 0.00283127 0.00283127 0.00344771 0.00344771 0.00181597 0.00181597 0.000888494 0.000888494 0.00316123 0.00316123 0.000148069 0.000148069 0.00047402 0.00047402 0.00837131 0.00837131 0.00256107 0.00256107 0.0034906 0.0034906 0.00506199 0.00506199 0.00310752 0.00310752 0.00528008 0.00528008 0.00214169 0.00214169 0.00586263 0.00586263 0.000907789 0.000907789 0.00565819 0.00565819 0.022163 0.022163 0.000149795 0.000149795 6.7186e-05 6.7186e-05 0.0292546 0.0292546 0.00504535 0.00504535 0.0168159 0.0168159 0.00210898 0.00210898 0.0150168 0.0150168 0.0040945 0.0040945 0.00544952 0.00544952 0.0012273 0.0012273 0.000986742 0.000986742 0.0101479 0.0101479 0.0241235 0.0241235 0.00310953 0.00310953 0.00997939 0.00997939 0.0027988 0.0027988 0.000327829 0.000327829 0.0102005 0.0102005 0.00725234 0.00725234 0.000236554 0.000236554 1.95755e-16 1.95755e-16 0.00103383 0.00103383 0.00101615 0.00101615 0.000151911 0.000151911 0.00349926 0.00349926 0.00155142 0.00155142 0.0020112 0.0020112 0.00162286 0.00162286 4.48045e-17 4.48045e-17 0.0169626 0.0169626 0.00035696 0.00035696 0.00072302 0.00072302 0.00370485 0.00370485 0.0196451 0.0196451 0.00778413 0.00778413 0.00348079 0.00348079 0.00140012 0.00140012 0.0161102 0.0161102 0.0119757 0.0119757 0.00670693 0.00670693 0.00682094 0.00682094 0.00204623 0.00204623 0.000840007 0.000840007 0.00769493 0.00769493 0.00333759 0.00333759 0.00436847 0.00436847 0.00146508 0.00146508 0.00921202 0.00921202 0.000527882 0.000527882 0.00187873 0.00187873 0.0153049 0.0153049 0.00150041 0.00150041 0.000314379 0.000314379 0 0 0.00200251 0.00200251 0.000130781 0.000130781 0.00287247 0.00287247 0.00351351 0.00351351 0.0112066 0.0112066 0.0167044 0.0167044 0.000142146 0.000142146 0.00488322 0.00488322 8.54702e-05 8.54702e-05 0.00212973 0.00212973 7.41595e-17 7.41595e-17 0.00537836 0.00537836 0.00271501 0.00271501 0.00376398 0.00376398 0.00355719 0.00355719 0.00230958 0.00230958 0.00435205 0.00435205 0.00560264 0.00560264 0.000642461 0.000642461 0.0192109 0.0192109 0.00550835 0.00550835 9.60553e-05 9.60553e-05 0.0172003 0.0172003 0.00488825 0.00488825 0.00276658 0.00276658 0.000110192 0.000110192 0.00947829 0.00947829 0.0129873 0.0129873 0.00504261 0.00504261 0.00255275 0.00255275 0.000425929 0.000425929 0.00224796 0.00224796 0.010627 0.010627 0.00264112 0.00264112 8.07619e-05 8.07619e-05 0.00259593 0.00259593 0.0074966 0.0074966 0.000128424 0.000128424 0.000471045 0.000471045 0.00171822 0.00171822 0.00686403 0.00686403 0.02592 0.02592 0.0264871 0.0264871 0.000885303 0.000885303 3.0945e-05 3.0945e-05 0.000409063 0.000409063 0.0170339 0.0170339 0.0444501 0.0444501 0.000566546 0.000566546 0.000598072 0.000598072 0.0172436 0.0172436 0.00126509 0.00126509 0.000592129 0.000592129 0.000221958 0.000221958 0.0280439 0.0280439 0.00187822 0.00187822 0.000865775 0.000865775 0.00148674 0.00148674 0.00475421 0.00475421 0.000228767 0.000228767 0.00796217 0.00796217 0.00474713 0.00474713 0.00218788 0.00218788 0.00526388 0.00526388 0.0029955 0.0029955 0.00010496 0.00010496 0.00177066 0.00177066 0.00104988 0.00104988 0.00123748 0.00123748 0.0114455 0.0114455 0.000325209 0.000325209 0.010302 0.010302 0.0167311 0.0167311 0.00141918 0.00141918 0.00450468 0.00450468 0.00130435 0.00130435 0.0013892 0.0013892 0.00464259 0.00464259 0.000834883 0.000834883 0.00141907 0.00141907 0.0119035 0.0119035 0.00384948 0.00384948 0.00130048 0.00130048 0.000148621 0.000148621 0.00412542 0.00412542 0.000234945 0.000234945 0.00653055 0.00653055 0.0134865 0.0134865 0.00613996 0.00613996 0.0141755 0.0141755 0.000635074 0.000635074 0.025657 0.025657 0.0145302 0.0145302 0.0143412 0.0143412 0.0290406 0.0290406 0.00453308 0.00453308 0.0082869 0.0082869 0.0347162 0.0347162 0.00304691 0.00304691 0.000486121 0.000486121 0.000628351 0.000628351 0.000942588 0.000942588 0.00186189 0.00186189 0.000512636 0.000512636 0.00370682 0.00370682 0.000503454 0.000503454 0.00343055 0.00343055 0.013536 0.013536 0.00398136 0.00398136 0.00101612 0.00101612 0.00198378 0.00198378 0.0052523 0.0052523 0.00179224 0.00179224 0.00565747 0.00565747 0.0078609 0.0078609 0.000552091 0.000552091 0.0133023 0.0133023 0.00379795 0.00379795 0.00243787 0.00243787 0.0154477 0.0154477 0.00798287 0.00798287 0.00202917 0.00202917 0.00420293 0.00420293 0.00873186 0.00873186 0.00441243 0.00441243 0.0021876 0.0021876 0.000438323 0.000438323 0.00130723 0.00130723 0.00300954 0.00300954 0.0108414 0.0108414 0.00230584 0.00230584 0.0297351 0.0297351 0.030