<?xml version="1.0"?>
<VTKFile type="PolyData" version="0.1" byte_order="LittleEndian" >
<PolyData>
<Piece NumberOfPoints="1974" NumberOfVerts="0" NumberOfLines="987" NumberOfStrips="0" NumberOfPolys="0">
<Points>
<DataArray type="Float32" NumberOfComponents="3" format="ascii">
0.0145867 0.132747 0.0401663 0.0132583 0.145473 0.0416565 0.0145867 0.132747 0.0401663 0.0115978 0.149839 0.0304078 0.0145867 0.132747 0.0401663 0.0326307 0.12554 0.0414946 0.0145867 0.132747 0.0401663 0.0302549 0.140207 0.0296747 0.0157069 0.160643 0.0294555 0.0283231 0.158423 0.03442 0.0302549 0.140207 0.0296747 0.0290313 0.144707 0.0220469 0.0302549 0.140207 0.0296747 0.0273529 0.14375 0.026127 0.0302549 0.140207 0.0296747 0.0273529 0.14375 0.026127 0.0302549 0.140207 0.0296747 0.0402 0.147036 0.0231424 0.0153903 0.108601 0.0239164 0.00738429 0.12313 0.0171705 0.0153903 0.108601 0.0239164 0.0160297 0.123987 0.035835 0.0153903 0.108601 0.0239164 0.0266254 0.095473 0.0278357 0.0153903 0.108601 0.0239164 0.00945767 0.0953901 0.035234 0.0153903 0.108601 0.0239164 0.0211539 0.10027 0.0343056 0.0271532 0.175796 0.00968054 0.0347901 0.17251 0.0133658 0.0271532 0.175796 0.00968054 0.0288783 0.189773 0.00530038 0.0227149 0.0913594 0.0236934 0.0330171 0.094661 0.0238541 0.0227149 0.0913594 0.0236934 0.029803 0.0921688 0.0422461 0.00954421 0.0752389 0.00663864 0.0015 0.0880099 0.01405 0.00954421 0.0752389 0.00663864 0.00182023 0.0662993 -0.000200005 0.00954421 0.0752389 0.00663864 -0.000200007 0.0839532 0.00249167 0.0134008 0.111452 0.0108724 0.0169263 0.12001 0.00824138 0.0134008 0.111452 0.0108724 0.0239997 0.11526 0.0170047 0.0134008 0.111452 0.0108724 0.0112209 0.118917 0.0145934 0.0134008 0.111452 0.0108724 0.029698 0.0917505 0.00474823 0.0129462 0.165662 0.00149998 0.0126704 0.182256 0.00727036 0.0129462 0.165662 0.00149998 0.0101181 0.174147 0.0082462 0.0129462 0.165662 0.00149998 0.0194296 0.177424 -0.000200009 0.0129462 0.165662 0.00149998 0.00215724 0.17366 -0.00020001 0.0131179 0.167576 0.0187548 0.02667 0.173754 0.0166218 0.0131179 0.167576 0.0187548 0.02667 0.173754 0.0166218 0.0131179 0.167576 0.0187548 0.00615727 0.17426 0.0194982 0.0131179 0.167576 0.0187548 0.0235617 0.17167 0.0232647 0.0131179 0.167576 0.0187548 0.0135263 0.173585 0.0144756 0.0131179 0.167576 0.0187548 0.0231867 0.176103 0.0295427 0.0131179 0.167576 0.0187548 0.0148924 0.164345 0.0377309 0.0131179 0.167576 0.0187548 -0.000200006 0.165501 0.0216808 0.033803 0.0369814 0.0103004 0.0371532 0.0451703 -0.000200005 0.033803 0.0369814 0.0103004 0.0311961 0.0285266 -0.000200071 0.00903719 0.0232183 0.032811 0.0112197 0.0415499 0.0388501 0.0123204 0.0546254 0.00832224 0.00970333 0.0759171 0.0128688 0.0123204 0.0546254 0.00832224 0.0207039 0.0625309 0.0145247 0.0123204 0.0546254 0.00832224 -0.000200009 0.0504627 0.0122798 0.0135263 0.173585 0.0144756 0.0271532 0.175796 0.00968054 0.0135263 0.173585 0.0144756 -0.00020001 0.172148 0.014461 0.00686951 0.0602145 0.0265775 0.0147365 0.0742198 0.0412358 0.00686951 0.0602145 0.0265775 0.0153617 0.0691986 0.0372631 0.00686951 0.0602145 0.0265775 0.00254395 0.0638624 0.0283974 0.00686951 0.0602145 0.0265775 0.00254395 0.0638624 0.0283974 0.028712 0.113777 0.0367304 0.0326307 0.12554 0.0414946 0.028712 0.113777 0.0367304 0.0160297 0.123987 0.035835 0.028712 0.113777 0.0367304 0.0230276 0.133364 0.0460569 0.028712 0.113777 0.0367304 0.0185872 0.114776 0.0389788 0.028712 0.113777 0.0367304 0.0185872 0.114776 0.0389788 0.028712 0.113777 0.0367304 0.0185872 0.114776 0.0389788 0.0101181 0.174147 0.0082462 0.0135263 0.173585 0.0144756 0.0101181 0.174147 0.0082462 0.0271532 0.175796 0.00968054 0.0101181 0.174147 0.0082462 -0.000200011 0.166472 0.00344438 0.0101181 0.174147 0.0082462 -0.00020001 0.183133 0.00935274 0.029698 0.0917505 0.00474823 0.0381672 0.0823167 -0.000200004 0.029698 0.0917505 0.00474823 0.0402 0.10051 0.0059807 0.029698 0.0917505 0.00474823 0.0402 0.0831158 0.00282737 0.0281411 0.173969 0.02083 0.0231867 0.176103 0.0295427 0.0281411 0.173969 0.02083 0.0231867 0.176103 0.0295427 0.0288623 0.056021 0.0187772 0.0210262 0.0642414 0.0185413 0.0288623 0.056021 0.0187772 0.0210262 0.0642414 0.0185413 0.0288623 0.056021 0.0187772 0.0207039 0.0625309 0.0145247 0.0288623 0.056021 0.0187772 0.0207039 0.0625309 0.0145247 0.0288623 0.056021 0.0187772 0.0207039 0.0625309 0.0145247 0.0288623 0.056021 0.0187772 0.0231168 0.0612123 0.0271191 0.0288623 0.056021 0.0187772 0.0349499 0.068683 0.0312705 0.0288623 0.056021 0.0187772 0.0230561 0.0564569 0.0318579 0.0288623 0.056021 0.0187772 0.0402 0.057342 0.0264424 0.0301666 0.0701889 0.0475265 0.0402 0.0747034 0.0557247 0.00627693 0.0275648 0.0103033 0.0117924 0.0370332 0.00915971 0.00627693 0.0275648 0.0103033 0.0117924 0.0370332 0.00915971 0.00627693 0.0275648 0.0103033 0.0065996 0.0382159 0.0217436 0.00627693 0.0275648 0.0103033 0.00246652 0.0195834 -0.000200004 0.00627693 0.0275648 0.0103033 0.00951814 0.0357937 -0.000200032 0.00627693 0.0275648 0.0103033 -0.000200008 0.0192249 0.0189417 0.0132587 0.186125 0.0214972 0.00683922 0.179491 0.0363328 0.0132587 0.186125 0.0214972 0.0231867 0.176103 0.0295427 0.0132587 0.186125 0.0214972 0.0196683 0.1985 0.0318849 0.0132587 0.186125 0.0214972 -0.000200008 0.187683 0.0240954 0.0176149 0.107651 0.0323423 0.0276038 0.118671 0.0300729 0.0176149 0.107651 0.0323423 0.0131935 0.122523 0.0285724 0.0176149 0.107651 0.0323423 0.0185872 0.114776 0.0389788 0.0176149 0.107651 0.0323423 0.028712 0.113777 0.0367304 0.0140488 0.105577 0.0408577 0.0176149 0.107651 0.0323423 0.0140488 0.105577 0.0408577 0.0129878 0.114379 0.0477833 0.0140488 0.105577 0.0408577 0.0129878 0.114379 0.0477833 0.0140488 0.105577 0.0408577 0.0129878 0.114379 0.0477833 0.0140488 0.105577 0.0408577 0.0185872 0.114776 0.0389788 0.0385 0.0330425 0.0102116 0.0316823 0.0417832 0.0327709 0.0385 0.0330425 0.0102116 0.0371 0.0242037 -0.000200011 0.0385 0.0330425 0.0102116 0.0371 0.0418813 -0.000200008 0.0385 0.0330425 0.0102116 0.0402 0.0242037 9.99777e-05 0.0385 0.0330425 0.0102116 0.0402 0.0418813 9.99848e-05 0.0263692 0.08492 0.0162109 0.00954421 0.0752389 0.00663864 0.0263692 0.08492 0.0162109 0.0330171 0.094661 0.0238541 0.0263692 0.08492 0.0162109 0.0209874 0.0983289 0.0106938 0.0263692 0.08492 0.0162109 0.0211169 0.0920563 0.0102896 0.022889 0.152357 0.00394329 0.0290144 0.159895 0.00983711 0.022889 0.152357 0.00394329 0.0311619 0.162313 -0.000200006 0.0319814 0.134753 0.0245851 0.0273529 0.14375 0.026127 0.0319814 0.134753 0.0245851 0.0384959 0.131078 0.0367376 0.0319814 0.134753 0.0245851 0.0302549 0.140207 0.0296747 0.0319814 0.134753 0.0245851 0.0270532 0.139528 0.0392695 0.0165289 0.084673 0.0394877 0.029803 0.0921688 0.0422461 0.0165289 0.084673 0.0394877 0.0132065 0.0954493 0.0453268 0.0165289 0.084673 0.0394877 0.0132147 0.100532 0.0419769 0.0283231 0.158423 0.03442 0.0235617 0.17167 0.0232647 0.0283231 0.158423 0.03442 0.0231867 0.176103 0.0295427 0.0131874 0.135187 0.0300616 0.0273529 0.14375 0.026127 0.0131874 0.135187 0.0300616 0.0187193 0.149516 0.0355176 0.0131874 0.135187 0.0300616 0.0290383 0.12067 0.0389144 0.0274525 0.147319 0.017738 0.022889 0.152357 0.00394329 0.0274525 0.147319 0.017738 0.0290313 0.144707 0.0220469 0.0274525 0.147319 0.017738 0.0290313 0.144707 0.0220469 0.0274525 0.147319 0.017738 0.0290313 0.144707 0.0220469 0.0274525 0.147319 0.017738 0.0402 0.143158 0.0209131 0.00150001 0.10658 0.0254031 0.0112209 0.118917 0.0145934 0.00150001 0.10658 0.0254031 -0.000200001 0.0985555 0.0146338 0.0265797 0.022263 0.0332778 0.0113672 0.0110389 0.0316219 0.0265797 0.022263 0.0332778 0.0190363 0.0331445 0.0422393 0.0265797 0.022263 0.0332778 0.0260416 0.0317692 0.0340104 0.0265797 0.022263 0.0332778 0.029439 0.0106473 0.027433 0.0265797 0.022263 0.0332778 0.029439 0.0106473 0.027433 0.0137858 0.110197 0.00616277 0.0169263 0.12001 0.00824138 0.0137858 0.110197 0.00616277 0.0169263 0.12001 0.00824138 0.0137858 0.110197 0.00616277 0.0116195 0.114634 0.00149995 0.0137858 0.110197 0.00616277 0.0116195 0.114634 0.00149995 0.0137858 0.110197 0.00616277 0.00738429 0.12313 0.0171705 0.0137858 0.110197 0.00616277 0.0293395 0.112731 0.00855715 0.0137858 0.110197 0.00616277 0.0293395 0.112731 0.00855715 0.00914362 0.0935699 0.0165915 0.00150001 0.10658 0.0254031 0.0185872 0.114776 0.0389788 0.0290383 0.12067 0.0389144 0.0296019 0.138139 0.003956 0.022889 0.152357 0.00394329 0.0296019 0.138139 0.003956 0.0402 0.129428 0.0033264 0.0109492 0.1579 0.0303119 0.0157069 0.160643 0.0294555 0.0109492 0.1579 0.0303119 0.0157069 0.160643 0.0294555 0.0109492 0.1579 0.0303119 -0.000200002 0.156807 0.0382763 0.0140411 0.138028 0.0268196 0.00586398 0.150175 0.0201233 0.0140411 0.138028 0.0268196 0.00905472 0.150726 0.0229563 0.0140411 0.138028 0.0268196 0.00905472 0.150726 0.0229563 0.0140411 0.138028 0.0268196 0.0115978 0.149839 0.0304078 0.0140411 0.138028 0.0268196 0.0115978 0.149839 0.0304078 0.0140411 0.138028 0.0268196 0.0267139 0.142055 0.0337266 0.0140411 0.138028 0.0268196 0.0131874 0.135187 0.0300616 0.0316823 0.0417832 0.0327709 0.0402 0.041284 0.0220681 0.0316823 0.0417832 0.0327709 0.0402 0.0519442 0.0361698 0.0122063 0.024652 0.0247719 0.00687286 0.0223649 0.035874 0.0122063 0.024652 0.0247719 0.00149999 0.0219261 0.027408 0.0122063 0.024652 0.0247719 0.0113672 0.0110389 0.0316219 0.0122063 0.024652 0.0247719 0.00903719 0.0232183 0.032811 0.0122063 0.024652 0.0247719 0.00903719 0.0232183 0.032811 0.0228306 0.0544511 0.00149992 0.0258987 0.066837 0.00449984 0.0228306 0.0544511 0.00149992 0.0258987 0.066837 0.00449984 0.0228306 0.0544511 0.00149992 0.0308847 0.0651983 -0.000200043 0.0228306 0.0544511 0.00149992 0.0345582 0.0479065 -0.000200042 0.0267852 0.0841879 0.00149987 0.0258987 0.066837 0.00449984 0.0267852 0.0841879 0.00149987 0.029698 0.0917505 0.00474823 0.0267852 0.0841879 0.00149987 0.029698 0.0917505 0.00474823 0.0267852 0.0841879 0.00149987 0.029698 0.0917505 0.00474823 0.0267852 0.0841879 0.00149987 0.0190073 0.100184 0.00149992 0.0267852 0.0841879 0.00149987 0.02
[...]
<PointData Scalars="F_N">
<DataArray type="Float32" Name="F_N" format="ascii">
0.00137126 0.00137126 0.000364457 0.000364457 0.00158402 0.00158402 0.000925417 0.000925417 6.93672e-05 6.93672e-05 0.000681062 0.000681062 0.0085932 0.0085932 0.00158849 0.00158849 0 0 0.00196088 0.00196088 0.000106417 0.000106417 0.00117211 0.00117211 0.000683588 0.000683588 0.000943878 0.000943878 0.00263378 0.00263378 0.00239944 0.00239944 0.000731894 0.000731894 0.00101134 0.00101134 0.000327899 0.000327899 0.00413614 0.00413614 0.000173288 0.000173288 0.00843552 0.00843552 0.00348602 0.00348602 0.00251446 0.00251446 6.11187e-05 6.11187e-05 0.000595724 0.000595724 0.00475971 0.00475971 0.00825588 0.00825588 0.00868248 0.00868248 0.00615825 0.00615825 0.00188604 0.00188604 0.000234918 0.000234918 0.00377697 0.00377697 0.00425194 0.00425194 0.000358372 0.000358372 0.000817394 0.000817394 0.000312786 0.000312786 0.00462541 0.00462541 0.063984 0.063984 0.000352521 0.000352521 0.00935477 0.00935477 0.0042609 0.0042609 0.000242521 0.000242521 0.0260955 0.0260955 0.00165161 0.00165161 0.000359136 0.000359136 0.000366091 0.000366091 0.00624992 0.00624992 0.000393282 0.000393282 0.00319814 0.00319814 0.000564757 0.000564757 0.000792667 0.000792667 4.08434e-05 4.08434e-05 0.00123379 0.00123379 0.00295653 0.00295653 0.0055178 0.0055178 0.00118135 0.00118135 0.000134161 0.000134161 1.95679e-06 1.95679e-06 0.00325287 0.00325287 0 0 0 0 0.00252384 0.00252384 0.00377813 0.00377813 0.00324073 0.00324073 0.00287423 0.00287423 0.0169769 0.0169769 0.000989948 0.000989948 0.00101006 0.00101006 0.00223464 0.00223464 0.00054918 0.00054918 0.000200861 0.000200861 0 0 0 0 0.0055025 0.0055025 0.000465397 0.000465397 0.00710802 0.00710802 0.00312401 0.00312401 0.029029 0.029029 0.000302911 0.000302911 0.00101625 0.00101625 0.000699454 0.000699454 0.0018646 0.0018646 0.000678428 0.000678428 5.5572e-07 5.5572e-07 0.00177348 0.00177348 0.000168196 0.000168196 0.0023184 0.0023184 0.00181032 0.00181032 0.00218568 0.00218568 0.0019261 0.0019261 0.00223013 0.00223013 0.00211008 0.00211008 0.00108002 0.00108002 0.0101612 0.0101612 0.00696632 0.00696632 0 0 0 0 0.00342291 0.00342291 0.000419135 0.000419135 0.00111748 0.00111748 0.00103227 0.00103227 0.0111868 0.0111868 0.00558438 0.00558438 0.000370196 0.000370196 0.00133088 0.00133088 9.02734e-05 9.02734e-05 0.000590487 0.000590487 0.000343418 0.000343418 0.00113533 0.00113533 9.8004e-05 9.8004e-05 0.000233493 0.000233493 0.00048879 0.00048879 0.00150154 0.00150154 0.00122912 0.00122912 0.00110497 0.00110497 0.000329242 0.000329242 0.00347392 0.00347392 0.00453945 0.00453945 0.00261546 0.00261546 0 0 0.00112307 0.00112307 1.61204e-05 1.61204e-05 0.00592134 0.00592134 0.00125263 0.00125263 0.000953677 0.000953677 0.00842507 0.00842507 0.00911957 0.00911957 0.0451644 0.0451644 0.0183224 0.0183224 0.0312268 0.0312268 0.0148357 0.0148357 0.00230642 0.00230642 0.0018169 0.0018169 0.000128633 0.000128633 0.000543052 0.000543052 0.000209726 0.000209726 0.000456303 0.000456303 0 0 0.00353845 0.00353845 0.0020441 0.0020441 0.000277055 0.000277055 0.000214407 0.000214407 0.00308745 0.00308745 0.00176596 0.00176596 0.00417558 0.00417558 0.000818891 0.000818891 0.000657895 0.000657895 0.00203784 0.00203784 0 0 0 0 0.000758013 0.000758013 0.00211502 0.00211502 0.000683417 0.000683417 0.00238639 0.00238639 0.00291727 0.00291727 0.0371349 0.0371349 0.0374416 0.0374416 0.0382867 0.0382867 0.0367614 0.0367614 0.0151982 0.0151982 0.0468093 0.0468093 0.0607675 0.0607675 9.38915e-05 9.38915e-05 0.00148867 0.00148867 0.0562202 0.0562202 0.0573505 0.0573505 0.000305135 0.000305135 0.00470019 0.00470019 0.000224127 0.000224127 3.5925e-05 3.5925e-05 0.000447035 0.000447035 0.000826698 0.000826698 0.00134901 0.00134901 0.00277042 0.00277042 0.000583648 0.000583648 0.00210287 0.00210287 4.6877e-05 4.6877e-05 0.00069464 0.00069464 0.000632724 0.000632724 0.0101113 0.0101113 0.00175547 0.00175547 0.00224221 0.00224221 0.00108209 0.00108209 0.00212721 0.00212721 0.00368007 0.00368007 0.000322095 0.000322095 0.000827841 0.000827841 0.00206001 0.00206001 0.00229364 0.00229364 0.00219435 0.00219435 1.56735e-06 1.56735e-06 1.27276e-06 1.27276e-06 0 0 0 0 0.00253085 0.00253085 0.000189341 0.000189341 0.000896637 0.000896637 0.0025582 0.0025582 0.0015112 0.0015112 0.00143966 0.00143966 0.000254353 0.000254353 0.0016467 0.0016467 0.0078811 0.0078811 0.0202705 0.0202705 0.011735 0.011735 0.00472783 0.00472783 0.00304691 0.00304691 0.000283152 0.000283152 0.00053635 0.00053635 0.0175392 0.0175392 0.00284498 0.00284498 0.0211094 0.0211094 0.0233999 0.0233999 0.000989146 0.000989146 0.00237861 0.00237861 0.00630374 0.00630374 0.0061179 0.0061179 0.00681591 0.00681591 0.000349332 0.000349332 0.000217837 0.000217837 0.011426 0.011426 0.00886634 0.00886634 0.000522357 0.000522357 0.00473442 0.00473442 0.0026209 0.0026209 0.00471043 0.00471043 0.00170053 0.00170053 0.00059858 0.00059858 0.000776596 0.000776596 0.0101507 0.0101507 0.0455271 0.0455271 0.00104598 0.00104598 2.45651e-05 2.45651e-05 0.000538565 0.000538565 0.00222501 0.00222501 0.00227606 0.00227606 0.0524353 0.0524353 0.0620168 0.0620168 0.00038716 0.00038716 0.00161213 0.00161213 0.0274925 0.0274925 0.0290459 0.0290459 0.00246012 0.00246012 0.00209184 0.00209184 0.00257068 0.00257068 0.000777838 0.000777838 0.00183214 0.00183214 0.000156663 0.000156663 0.00195643 0.00195643 0.000346732 0.000346732 0.000128831 0.000128831 0.00156755 0.00156755 1.9298e-05 1.9298e-05 1.9768e-05 1.9768e-05 0.000257529 0.000257529 0.021922 0.021922 0.0237289 0.0237289 0.00846727 0.00846727 0.00107479 0.00107479 0.00721962 0.00721962 0.0121409 0.0121409 0.00110085 0.00110085 0.000680623 0.000680623 0.000134494 0.000134494 0.00523301 0.00523301 4.97371e-05 4.97371e-05 0 0 0.0005354 0.0005354 0.00619601 0.00619601 0.000900271 0.000900271 0.00201834 0.00201834 0.00103593 0.00103593 0.00308211 0.00308211 0.00280672 0.00280672 0.00233313 0.00233313 0.00114249 0.00114249 0.00888943 0.00888943 0.000571191 0.000571191 0.0790567 0.0790567 0.0727795 0.0727795 0.000895849 0.000895849 0.0244974 0.0244974 0.0015041 0.0015041 0.00593711 0.00593711 0.00137736 0.00137736 0.000726066 0.000726066 0.000381698 0.000381698 0.000494264 0.000494264 0.00190633 0.00190633 0.00871084 0.00871084 2.08278e-05 2.08278e-05 0.00177076 0.00177076 0.000525482 0.000525482 0.00170037 0.00170037 0.00112357 0.00112357 0.00155554 0.00155554 0.000424496 0.000424496 0.0011988 0.0011988 0.00833615 0.00833615 0.00509953 0.00509953 0.000632996 0.000632996 0.00453813 0.00453813 0.00289759 0.00289759 0 0 0.0155601 0.0155601 0.00144043 0.00144043 0.00596125 0.00596125 0.0086959 0.0086959 0.00439209 0.00439209 0.000375155 0.000375155 0.000252106 0.000252106 0.00112038 0.00112038 0.0013357 0.0013357 0.00235166 0.00235166 9.07652e-07 9.07652e-07 0.0175812 0.0175812 0.00807304 0.00807304 0.00118442 0.00118442 6.89466e-05 6.89466e-05 0.000578409 0.000578409 0.00332822 0.00332822 0.000355322 0.000355322 0.00318719 0.00318719 0.0335019 0.0335019 0.000274897 0.000274897 0.00882438 0.00882438 0.0380037 0.0380037 0.0554301 0.0554301 0.0605929 0.0605929 0.00548646 0.00548646 0.0355215 0.0355215 0.0201192 0.0201192 0.00437308 0.00437308 0.0055537 0.0055537 0.00471064 0.00471064 0.00197996 0.00197996 0.000523154 0.000523154 0.00151785 0.00151785 0.000867349 0.000867349 0.00583125 0.00583125 0.00233912 0.00233912 0.00113188 0.00113188 0.000814976 0.000814976 0.000307735 0.000307735 0.000740109 0.000740109 0.00117449 0.00117449 6.60371e-05 6.60371e-05 0.00940992 0.00940992 0.000886694 0.000886694 0.000480252 0.000480252 2.41873e-05 2.41873e-05 0.00197151 0.00197151 0.00192983 0.00192983 0.00219513 0.00219513 0.00195485 0.00195485 0.00428203 0.00428203 0.00101957 0.00101957 0.000176518 0.000176518 0.00156888 0.00156888 0.000871302 0.000871302 5.14268e-06 5.14268e-06 0.000248439 0.000248439 0.000172385 0.000172385 0.000362524 0.000362524 0.000409474 0.000409474 0.00265836 0.00265836 0.00308017 0.00308017 0.00156224 0.00156224 0.00385219 0.00385219 0.0204343 0.0204343 0.00773916 0.00773916 0.0204465 0.0204465 0.0224852 0.0224852 0.000697161 0.000697161 0.00548618 0.00548618 0.00548618 0.00548618 0.00323762 0.00323762 0.00134446 0.00134446 0.000378091 0.000378091 0.00173088 0.00173088 6.45648e-05 6.45648e-05 0.00067627 0.00067627 5.45493e-05 5.45493e-05 0.0108086 0.0108086 0.0246293 0.0246293 0.00610954 0.00610954 0.00101913 0.00101913 0.000877621 0.000877621 0.000103982 0.000103982 0 0 0.0154385 0.0154385 0.031426 0.031426 0.00709333 0.00709333 0.00109493 0.00109493 7.61736e-05 7.61736e-05 0.00298797 0.00298797 0.0024525 0.0024525 0.004761 0.004761 0.000804332 0.000804332 0.0073984 0.0073984 0.000841397 0.000841397 0.000919391 0.000919391 0.000100198 0.000100198 0.00018557 0.00018557 5.95759e-05 5.95759e-05 0.00273697 0.00273697 0.000504567 0.000504567 0.000100692 0.000100692 1.00755e-06 1.00755e-06 0.00110058 0.00110058 0.00051429 0.00051429 0 0 9.87888e-05 9.87888e-05 9.87888e-05 9.87888e-05 0 0 0.0024416 0.0024416 0.00207803 0.00207803 1.96002e-05 1.96002e-05 0 0 0.00409994 0.00409994 0.00210121 0.00210121 0.00557006 0.00557006 0.00182142 0.00182142 0.00204523 0.00204523 3.58511e-05 3.58511e-05 0.00265583 0.00265583 0.000897131 0.000897131 0.000239228 0.000239228 0.00650654 0.00650654 0.000602827 0.000602827 0.00364442 0.00364442 0.000367507 0.000367507 0.000482504 0.000482504 0.00269555 0.00269555 0.00197684 0.00197684 0.000266719 0.000266719 0.000308219 0.000308219 0.0017519 0.0017519 0.00628048 0.00628048 8.04045e-05 8.04045e-05 0.000381116 0.000381116 0.000917707 0.000917707 0.000670028 0.000670028 0.0125327 0.0125327 0.0329901 0.0329901 0.00256175 0.00256175 0.000309798 0.000309798 0.000721625 0.000721625 0.00235794 0.00235794 0.00675813 0.00675813 0.00151504 0.00151504 0.000190465 0.000190465 5.34578e-05 5.34578e-05 0.000117308 0.000117308 0.000194134 0.000194134 0 0 0.00057767 0.00057767 0.00436984 0.00436984 0.00158678 0.00158678 0.000490024 0.000490024 0.0062721 0.0062721 0.00589683 0.00589683 0.00149345 0.00149345 3.98162e-05 3.98162e-05 0.00410028 0.00410028 0.00242464 0.00242464 0.00151394 0.00151394 0.00171233 0.00171233 0 0 0.000213623 0.000213623 0.000213829 0.000213829 7.24885e-05 7.24885e-05 0.000101285 0.000101285 0.00188063 0.00188063 0.000320352 0.000320352 0.00261235 0.00261235 0 0 0.000662621 0.000662621 0 0 0.00397166 0.00397166 0.0011691 0.0011691 0.000528764 0.000528764 0.00124806 0.00124806 0.00377691 0.00377691 0.00270145 0.00270145 0.00313444 0.00313444 0.00463727 0.00463727 0.00282433 0.00282433 0.000235399 0.000235399 5.79409e-05 5.79409e-05 0.0029525 0.0029525 0.0089356 0.0089356 0.00217924 0.00217924 0.010391 0.010391 0.00220899 0.00220899 0.000161783 0.000161783 0.0100328 0.0100328 0 0 0.000105585 0.000105585 0.108965 0.108965 0.0191519 0.0191519 0.00415243 0.00415243 0.022403 0.022403 0.0255219 0.0255219 0.0225373 0.0225373 0.00035512 0.00035512 0.00129511 0.00129511 0.00113815 0.00113815 0.00217148 0.00217148 0.000995264 0.000995264 0 0 0.003412 0.003412 0.0205921 0.0205921 0.00017249 0.00017249 0.0161531 0.0161531 0.00144979 0.00144979 0.00213904 0.00213904 0.00259298 0.00259298 0.000381517 0.000381517 0.000129799 0.000129799 0.00318447 0.00318447 0.00413575 0.00413575 0.00564095 0.00564095 0.00108931 0.00108931 0 0 0.0138907 0.0138907 0.000868303 0.000868303 0.000732816 0.000732816 0.00803497 0.00803497 0.00526915 0.00526915 0.000106573 0.000106573 0.00354724 0.00354724 0.00112851 0.00112851 5.76711e-05 5.76711e-05 0.000724176 0.000724176 0.00274278 0.00274278 0.0029573 0.0029573 0.00551063 0.00551063 0.0049032 0.0049032 0.00323119 0.00323119 0.000881692 0.000881692 0.00180691 0.00180691 0.00687982 0.00687982 0.0017655 0.0017655 0.00889922 0.00889922 0.00870975 0.00870975 0 0 0.00294896 0.00294896 0.00111575 0.00111575 0.0053806 0.0053806 0.00301426 0.00301426 0.00571511 0.00571511 0.000854042 0.000854042 0.00326201 0.00326201 0.00361711 0.00361711 0.00277748 0.00277748 0.00791538 0.00791538 0.00030366 0.00030366 0.00828865 0.00828865 0.00062571 0.00062571 0.00126819 0.00126819 0.00123126 0.00123126 4.45079e-06 4.45079e-06 0.00345674 0.00345674 0.000806082 0.000806082 0.00335443 0.00335443 0.00165605 0.00165605 0.00326499 0.00326499 0.00146774 0.00146774 0.000163713 0.000163713 0.00210049 0.00210049 0.00113587 0.00113587 0.00175364 0.00175364 0.00350812 0.00350812 0.000106205 0.000106205 0.0031592 0.0031592 0.000526494 0.000526494 0.00100654 0.00100654 5.67443e-05 5.67443e-05 0.000913124 0.000913124 0.00208415 0.00208415 0.000394193 0.000394193 0.000904455 0.000904455 0.00486406 0.00486406 0.00271983 0.00271983 0.0168815 0.0168815 0.00782814 0.00782814 0.00458003 0.00458003 0.00189646 0.00189646 0.00173745 0.00173745 0.000933531 0.000933531 0.0097375 0.0097375 0.00258911 0.00258911 0 0 0.00279201 0.00279201 0.00126762 0.00126762 0.00684992 0.00684992 0.00106453 0.00106453 0.00797827 0.00797827 0.0250563 0.0250563 0.00126985 0.00126985 0.000936878 0.000936878 0.00299941 0.00299941 0.000206512 0.000206512 0.00138888 0.00138888 0.00105705 0.00105705 0.00215008 0.00215008 0.017695 0.017695 0.00609632 0.00609632 0.00166937 0.00166937 4.64785e-05 4.64785e-05 0.00205212 0.00205212 0.00236 0.00236 3.23693e-05 3.23693e-05 0.00374841 0.00374841 0.000677429 0.000677429 0.00374015 0.00374015 0 0 0.0115 0.0115 7.70989e-05 7.70989e-05 0.00633452 0.00633452 0.00745808 0.00745808 0.000358146 0.000358146 0 0 0.00064266 0.00064266 0.00124144 0.00124144 0.000832533 0.000832533 0.00135507 0.00135507 7.61927e-05 7.61927e-05 0.0225199 0.0225199 0.0228302 0.0228302 0.0034272 0.0034272 0.00926684 0.00926684 0.00226497 0.00226497 0.00469701 0.00469701 0.00219253 0.00219253 0.00335262 0.00335262 0.0163555 0.0163555 0.0072137 0.0072137 0.000560963 0.000560963 0.0104601 0.0104601 0.000756404 0.000756404 0.00140593 0.00140593 0.000205544 0.000205544 1.9531e-05 1.9531e-05 0 0 0.000926469 0.000926469 0.00304083 0.00304083 0.00642417 0.00642417 0.000467421 0.000467421 0.0186963 0.0186963 0.00284787 0.00284787 0.0713959 0.0713959 0.00989054 0.00989054 0.00748477 0.00748477 0.00999851 0.00999851 7.09347e-05 7.09347e-05 0.00226667 0.00226667 0.00570403 0.00570403 7.95736e-08 7.95736e-08 0.00033341 0.00033341 0.000987618 0.000987618 0.000744372 0.000744372 0.000885516 0.000885516 0.0013827 0.0013827 0.000106711 0.000106711 0.00101052 0.00101052 0.000670524 0.000670524 0.000670524 0.000670524 0.000645478 0.000645478 0.000309845 0.000309845 0.000552959 0.000552959 0.0015537 0.0015537 0.00369952 0.00369952 0.000698682 0.000698682 0.000905977 0.000905977 0.000296151 0.000296151 0.00317033 0.00317033 5.46455e-06 5.46455e-06 2.75569e-05 2.75569e-05 0.00135751 0.00135751 0.000369141 0.000369141 0.00133337 0.00133337 0 0 0.00096042 0.00096042 0.00147745 0.00147745 2.09945e-05 2.09945e-05 0.0118205 0.0118205 0.012134 0.012134 0.00173593 0.00173593 0.00596261 0.00596261 0.00113121 0.00113121 0.00126957 0.00126957 7.37568e-05 7.37568e-05 0 0 0 0 0.000463308 0.000463308 0.000347571 0.000347571 0.000446628 0.000446628 0.00079916 0.00079916 0.0051018 0.0051018 0.00959528 0.00959528 0.00587007 0.00587007 0.00180297 0.00180297 2.77654e-05 2.77654e-05 4.70273e-05 4.70273e-05 0.00278325 0.00278325 0.00290754 0.00290754 0.00233651 0.00233651 0.0172496 0.0172496 0.00273801 0.00273801 0.00980894 0.00980894 0.00513915 0.00513915 0.000865472 0.000865472 0.00167018 0.00167018 0.0119367 0.0119367 0.00134007 0.00134007 0.00598473 0.00598473 0.00718411 0.00718411 0.00342623 0.00342623 0.00142746 0.00142746 0.00169318 0.00169318 0.00504951 0.00504951 0.018479 0.018479 0.00191015 0.00191015 0.0196143 0.0196143 0.0346187 0.0346187 0.000528619 0.000528619 7.96507e-05 7.96507e-05 0.00952089 0.00952089 0.0145399 0.0145399 0 0 0.00100217 0.00100217 0 0 0.0234402 0.0234402 0.0232665 0.0232665 0.00154036 0.00154036 0.00584354 0.00584354 0.000397804 0.000397804 0.0172499 0.0172499 0.00675209 0.00675209 0.0252571 0.0252571 0.0110478 0.0110478 0.0328604 0.0328604 0.000109213 0.000109213 0.007594 0.007594 0.00166935 0.00166935 0.000366282 0.000366282 0.00112942 0.00112942 0.00115429 0.00115429 0.00386041 0.00386041 0.00464117 0.00464117 0.00046616 0.00046616 0.000808075 0.000808075 0.000358517 0.000358517 0.000133367 0.000133367 0.000686939 0.000686939 0.000147067 0.000147067 5.80585e-05 5.80585e-05 0.000323361 0.000323361 0.000396737 0.000396737 0.00181599 0.00181599 0.000561873 0.000561873 8.08478e-05 8.08478e-05 4.09887e-05 4.09887e-05 0.000101252 0.000101252 0.00105126 0.00105126 0.0283461 0.0283461 0.0263444 0.0263444 0.0112338 0.0112338 0.020919 0.020919 0.000737028 0.000737028 0.00271398 0.00271398 0.0206418 0.0206418 0.00374049 0.00374049 0.000626954 0.000626954 0.00240187 0.00240187 0 0 0.0289585 0.0289585 0.0269945 0.0269945 0.0274417 0.0274417 0.0005341 0.0005341 0.0115444 0.0115444 0.0165528 0.0165528 0.025958 0.025958 0.00563386 0.00563386 0.00226599 0.00226599 0 0 0 0 0.000142919 0.000142919 0.000814485 0.000814485 0 0 0.0120268 0.0120268 0.0011862 0.0011862 0.0113335 0.0113335 0.063278 0.063278 0.00547657 0.00547657 0.00090631 0.00090631 0.000363396 0.000363396 0.00425097 0.00425097 0 0 0.000836307 0.000836307 0.00238952 0.00238952 0.00385851 0.00385851 0.00953307 0.00953307 0.00110294 0.00110294 0.00185969 0.00185969 0.00169541 0.00169541 1.23839e-05 1.23839e-05 3.00925e-05 3.00925e-05 3.00925e-05 3.00925e-05 0.000269928 0.000269928 0.00199049 0.00199049 0.00880312 0.00880312 0.00741946 0.00741946 0.0033876 0.0033876 5.04612e-05 5.04612e-05 0.000407309 0.000407309 0.000636899 0.000636899 0.0183572 0.0183572 0.00668653 0.00668653 0.0443761 0.0443761 0.000512191 0.000512191 0.000204116 0.000204116 0.00165915 0.00165915 0.00111764 0.00111764 0.00145723 0.00145723 0.0116183 0.0116183 0.0472309 0.0472309 0.0211877 0.0211877 0.000189533 0.000189533 0.0365696 0.0365696 0.0434876 0.0434876 0.00069884 0.00069884 0.000480841 0.000480841 3.27305e-05 3.27305e-05 0.000755896 0.000755896 0.000999443 0.000999443 0.000471588 0.000471588 0.0198584 0.0198584 0.00730149 0.00730149 0.000334746 0.000334746 0.00356291 0.00356291 0.00994019 0.00994019 0.00726347 0.00726347 0.000564862 0.000564862 0.00129909 0.00129909 5.36125e-05 5.36125e-05 0.000222304 0.000222304 0.000462936 0.000462936 0 0 0.00100504 0.00100504 0.00280356 0.00280356 0.00274717 0.00274717 0.000118776 0.000118776 5.80587e-05 5.80587e-05 0.000262088 0.000262088 0 0 0.00215927 0.00215927 0.00501629 0.00501629 6.55594e-05 6.55594e-05 0.00635828 0.00635828 0.00122786 0.00122786 0.0013589 0.0013589 0.00157977 0.00157977 0.0110914 0.0110914 0.0212789 0.0212789 0.0183235 0.0183235 0.00627615 0.00627615 0.0030512 0.0030512 0.00629704 0.00629704 0.000293208 0.000293208 0.00370376 0.00370376 0.029594 0.029594 6.08308e-05 6.08308e-05 0.00766925 0.00766925 0.00354429 0.00354429 0.0282176 0.0282176 0.00207068 0.00207068 0.000729883 0.000729883 0.000134681 0.000134681 0.000793752 0.000793752 0.00329787 0.00329787 0.00031539 0.00031539 0.00159875 0.00159875 0.000613529 0.000613529 0.00119238 0.00119238 0.00110176 0.00110176 0.0118577 0.0118577 0.00786246 0.00786246 0.0206141 0.0206141 0.00142945 0.00142945 0.0035885 0.0035885 0.000479772 0.000479772 0.0132506 0.0132506 7.42006e-05 7.42006e-05 0.017031 0.017031 0.00143815 0.00143815 0.00649967 0.00649967 0.000335194 0.000335194 4.45355e-05 4.45355e-05 0.000238883 0.000238883 0.000567589 0.000567589 0.0014527 0.0014527 0.000244314 0.000244314 0.00470132 0.00470132 0.00333914 0.00333914 5.3284e-05 5.3284e-05 0.000889316 0.000889316 0.000308035 0.000308035 0.000162634 0.000162634 0.0447633 0.0447633 0.0122284 0.0122284 0.00145203 0.00145203 0.0157492 0.0157492 0.00249426 0.00249426 0.00143636 0.00143636 0.000691146 0.000691146 0.000369545 0.000369545 0.0015359 0.0015359 0.0212896 0.0212896 0.00791346 0.00791346 0.00494308 0.00494308 0.000948737 0.000948737 0.0049709 0.0049709 0.00193204 0.00193204 0.00812786 0.00812786 0.00988469 0.00988469 0.00781901 0.00781901 0.000488681 0.000488681 0.0120372 0.0120372 0.018314 0.018314