<?xml version="1.0"?>
<VTKFile type="PolyData" version="0.1" byte_order="LittleEndian" >
<PolyData>
<Piece NumberOfPoints="25024" NumberOfVerts="0" NumberOfLines="12512" NumberOfStrips="0" NumberOfPolys="0">
<Points>
<DataArray type="Float32" NumberOfComponents="3" format="ascii">
0.0526066 0.0677403 0.212154 0.0600092 0.0654492 0.215101 0.0526066 0.0677403 0.212154 0.0634088 0.0659759 0.210154 0.00305134 0.0772023 0.212099 0.00149985 0.092066 0.219385 0.00305134 0.0772023 0.212099 -0.00020002 0.0888701 0.205977 0.0420439 0.0642288 0.212378 0.0526066 0.0677403 0.212154 0.1585 0.120953 0.212644 0.1602 0.134209 0.210491 0.1585 0.120953 0.212644 0.1602 0.120592 0.199219 0.00149985 0.092066 0.219385 -0.000200083 0.103005 0.227177 0.00149985 0.092066 0.219385 -0.000200093 0.0858069 0.231268 0.0378019 0.0711264 0.211011 0.0526066 0.0677403 0.212154 0.0123663 0.0973701 0.210957 0.00149985 0.092066 0.219385 0.00149989 0.0616113 0.212945 0.00305134 0.0772023 0.212099 0.00149989 0.0616113 0.212945 0.00305134 0.0772023 0.212099 0.00149989 0.0616113 0.212945 -0.000200059 0.0685293 0.224456 0.00149989 0.0616113 0.212945 -0.000200058 0.0511285 0.22134 0.00149989 0.0616113 0.212945 9.98854e-05 0.0498 0.219863 0.00468141 0.145821 0.213142 0.00766924 0.153252 0.213202 0.00468141 0.145821 0.213142 -0.000200019 0.144564 0.225781 0.00580699 0.0669506 0.210168 0.00305134 0.0772023 0.212099 0.00580699 0.0669506 0.210168 -0.000200011 0.062639 0.198715 0.00674926 0.166334 0.210921 -0.000200046 0.154602 0.211613 0.149798 0.107439 0.212875 0.149373 0.0962888 0.210685 0.149798 0.107439 0.212875 0.149373 0.0962888 0.210685 0.149798 0.107439 0.212875 0.1602 0.113017 0.219886 0.149798 0.107439 0.212875 0.1602 0.104417 0.204442 0.0130123 0.0623171 0.212986 0.00580699 0.0669506 0.210168 0.0130123 0.0623171 0.212986 -0.000200052 0.0600832 0.216243 0.0130123 0.0623171 0.212986 0.0161842 0.0497999 0.217783 0.00561652 0.0703128 0.221718 0.0130123 0.0623171 0.212986 0.00561652 0.0703128 0.221718 0.00580699 0.0669506 0.210168 0.00561652 0.0703128 0.221718 0.00580699 0.0669506 0.210168 0.00561652 0.0703128 0.221718 0.00305134 0.0772023 0.212099 0.00561652 0.0703128 0.221718 0.00305134 0.0772023 0.212099 0.00561652 0.0703128 0.221718 -0.000200009 0.0816112 0.226642 0.0600092 0.0654492 0.215101 0.0634088 0.0659759 0.210154 0.0298034 0.0757447 0.211319 0.0378019 0.0711264 0.211011 0.0298034 0.0757447 0.211319 0.0378019 0.0711264 0.211011 0.1585 0.169591 0.210436 0.1602 0.166208 0.197438 0.1585 0.169591 0.210436 0.1602 0.182019 0.205345 0.0292039 0.0595939 0.217271 0.0376458 0.0694224 0.220644 0.0292039 0.0595939 0.217271 0.0420439 0.0642288 0.212378 0.0292039 0.0595939 0.217271 0.0212439 0.0720614 0.226846 0.0292039 0.0595939 0.217271 0.0244074 0.0690469 0.22886 0.0292039 0.0595939 0.217271 0.0165266 0.0631708 0.222562 0.0292039 0.0595939 0.217271 0.0250613 0.06173 0.217784 0.0292039 0.0595939 0.217271 0.0130123 0.0623171 0.212986 0.0292039 0.0595939 0.217271 0.0314886 0.0498 0.207945 0.142759 0.110177 0.212407 0.149798 0.107439 0.212875 0.142759 0.110177 0.212407 0.149798 0.107439 0.212875 0.145653 0.176818 0.210633 0.1585 0.169591 0.210436 0.136501 0.130969 0.212136 0.145767 0.120404 0.215322 0.0345627 0.0820588 0.214046 0.0298034 0.0757447 0.211319 0.0345627 0.0820588 0.214046 0.030863 0.0941987 0.217491 0.0345627 0.0820588 0.214046 0.0379628 0.0966514 0.212895 0.0345627 0.0820588 0.214046 0.0334092 0.0980678 0.21571 0.0782101 0.0628666 0.215205 0.0634088 0.0659759 0.210154 0.0782101 0.0628666 0.215205 0.0844275 0.060503 0.223412 0.0782101 0.0628666 0.215205 0.0847562 0.0606405 0.220387 0.0782101 0.0628666 0.215205 0.0847562 0.0606405 0.220387 0.0782101 0.0628666 0.215205 0.0900956 0.0678903 0.213703 0.0782101 0.0628666 0.215205 0.0833765 0.0667831 0.213381 0.0782101 0.0628666 0.215205 0.0833765 0.0667831 0.213381 0.0250613 0.06173 0.217784 0.0376458 0.0694224 0.220644 0.0250613 0.06173 0.217784 0.0290806 0.0639534 0.210336 0.0934083 0.0534771 0.211221 0.0847562 0.0606405 0.220387 0.0934083 0.0534771 0.211221 0.0939196 0.0653492 0.212525 0.0934083 0.0534771 0.211221 0.0871284 0.0498 0.222688 0.0177274 0.0781558 0.21152 0.00305134 0.0772023 0.212099 0.0177274 0.0781558 0.21152 0.00305134 0.0772023 0.212099 0.0177274 0.0781558 0.21152 0.0345627 0.0820588 0.214046 0.116114 0.137816 0.210407 0.123005 0.152604 0.21323 0.116114 0.137816 0.210407 0.106669 0.152637 0.211937 0.155383 0.129799 0.21222 0.1585 0.120953 0.212644 0.155383 0.129799 0.21222 0.1585 0.120953 0.212644 0.0376458 0.0694224 0.220644 0.0378019 0.0711264 0.211011 0.0376458 0.0694224 0.220644 0.0378019 0.0711264 0.211011 0.0376458 0.0694224 0.220644 0.0378019 0.0711264 0.211011 0.0376458 0.0694224 0.220644 0.0526066 0.0677403 0.212154 0.113264 0.11879 0.211107 0.116114 0.137816 0.210407 0.113264 0.11879 0.211107 0.109704 0.122647 0.216086 0.113264 0.11879 0.211107 0.109704 0.122647 0.216086 0.113264 0.11879 0.211107 0.0964977 0.131528 0.211407 0.0174872 0.117052 0.213607 0.014774 0.109567 0.212262 0.0174872 0.117052 0.213607 0.0192018 0.133995 0.21999 0.0174872 0.117052 0.213607 0.01298 0.124069 0.213491 0.0174872 0.117052 0.213607 0.01298 0.124069 0.213491 0.0174872 0.117052 0.213607 0.0285895 0.116775 0.210765 0.0976846 0.0849624 0.21269 0.11114 0.0787512 0.220866 0.0713003 0.0884299 0.211739 0.0726761 0.0797018 0.212738 0.0713003 0.0884299 0.211739 0.0768357 0.0952202 0.216715 0.0971292 0.109016 0.211725 0.0893582 0.100254 0.212542 0.0971292 0.109016 0.211725 0.0893582 0.100254 0.212542 0.0971292 0.109016 0.211725 0.0833691 0.120863 0.211682 0.0165266 0.0631708 0.222562 0.0130123 0.0623171 0.212986 0.0165266 0.0631708 0.222562 0.0130123 0.0623171 0.212986 0.0210007 0.151375 0.2103 0.028748 0.155106 0.23024 0.0900956 0.0678903 0.213703 0.0976846 0.0849624 0.21269 0.0900956 0.0678903 0.213703 0.0833765 0.0667831 0.213381 0.0939196 0.0653492 0.212525 0.0900956 0.0678903 0.213703 0.0939196 0.0653492 0.212525 0.0900956 0.0678903 0.213703 0.0939196 0.0653492 0.212525 0.0833765 0.0667831 0.213381 0.0939196 0.0653492 0.212525 0.0833765 0.0667831 0.213381 0.125061 0.107954 0.214209 0.113264 0.11879 0.211107 0.125061 0.107954 0.214209 0.128888 0.09738 0.211171 0.125061 0.107954 0.214209 0.128888 0.09738 0.211171 0.125061 0.107954 0.214209 0.109704 0.122647 0.216086 0.0649225 0.119232 0.211886 0.0652091 0.13659 0.218893 0.0649225 0.119232 0.211886 0.072386 0.120511 0.215804 0.0649225 0.119232 0.211886 0.0554003 0.131741 0.225732 0.0964977 0.131528 0.211407 0.106669 0.152637 0.211937 0.115151 0.139641 0.214345 0.116114 0.137816 0.210407 0.115151 0.139641 0.214345 0.106669 0.152637 0.211937 0.0175651 0.0852783 0.214026 0.0289721 0.0944465 0.220305 0.0175651 0.0852783 0.214026 0.014774 0.109567 0.212262 0.0285895 0.116775 0.210765 0.0346641 0.125382 0.219916 0.0285895 0.116775 0.210765 0.0162396 0.13351 0.21613 0.150774 0.138014 0.211499 0.155383 0.129799 0.21222 0.150774 0.138014 0.211499 0.147776 0.150492 0.218324 0.150774 0.138014 0.211499 0.152002 0.154766 0.213364 0.150774 0.138014 0.211499 0.1602 0.144523 0.219027 0.148885 0.0976717 0.214198 0.149373 0.0962888 0.210685 0.148885 0.0976717 0.214198 0.149373 0.0962888 0.210685 0.126303 0.0777626 0.210111 0.130331 0.093357 0.214383 0.0139248 0.103109 0.217365 0.0174872 0.117052 0.213607 0.0139248 0.103109 0.217365 0.014774 0.109567 0.212262 0.0139248 0.103109 0.217365 0.014774 0.109567 0.212262 0.093123 0.0711711 0.217301 0.0939196 0.0653492 0.212525 0.093123 0.0711711 0.217301 0.0833765 0.0667831 0.213381 0.0135909 0.164547 0.214058 0.00674926 0.166334 0.210921 0.0135909 0.164547 0.214058 0.0351622 0.169715 0.219491 0.0983032 0.110474 0.215342 0.0971292 0.109016 0.211725 0.0983032 0.110474 0.215342 0.0971292 0.109016 0.211725 0.0983032 0.110474 0.215342 0.0893582 0.100254 0.212542 0.0983032 0.110474 0.215342 0.0884775 0.121945 0.218689 0.0983032 0.110474 0.215342 0.109704 0.122647 0.216086 0.0983032 0.110474 0.215342 0.100661 0.133335 0.213701 0.0983032 0.110474 0.215342 0.113264 0.11879 0.211107 0.0847562 0.0606405 0.220387 0.093123 0.0711711 0.217301 0.0847562 0.0606405 0.220387 0.0833765 0.0667831 0.213381 0.0379628 0.0966514 0.212895 0.0334092 0.0980678 0.21571 0.0379628 0.0966514 0.212895 0.0334092 0.0980678 0.21571 0.0745227 0.0514999 0.225649 0.0844275 0.060503 0.223412 0.0745227 0.0514999 0.225649 0.0844275 0.060503 0.223412 0.0745227 0.0514999 0.225649 0.0934083 0.0534771 0.211221 0.0745227 0.0514999 0.225649 0.0867095 0.0497999 0.220005 0.0745227 0.0514999 0.225649 0.0705594 0.0497999 0.212816 0.0858323 0.161333 0.212889 0.0856725 0.151712 0.212543 0.0796418 0.136038 0.215365 0.096212 0.129231 0.223357 0.100661 0.133335 0.213701 0.0964977 0.131528 0.211407 0.100661 0.133335 0.213701 0.0964977 0.131528 0.211407 0.100661 0.133335 0.213701 0.106669 0.152637 0.211937 0.100661 0.133335 0.213701 0.114602 0.143295 0.217469 0.0443514 0.15351 0.211471 0.0455755 0.155041 0.214494 0.0443514 0.15351 0.211471 0.0455755 0.155041 0.214494 0.14062 0.073383 0.212882 0.130331 0.093357 0.214383 0.055497 0.0812508 0.212898 0.0545344 0.0997308 0.212916 0.055497 0.0812508 0.212898 0.0600092 0.0654492 0.215101 0.128205 0.0854223 0.215184 0.130331 0.093357 0.214383 0.128205 0.0854223 0.215184 0.130331 0.093357 0.214383 0.116242 0.0608287 0.212894 0.126303 0.0777626 0.210111 0.116242 0.0608287 0.212894 0.110313 0.0498 0.218557 0.0187913 0.0797067 0.221611 0.0175651 0.0852783 0.214026 0.0187913 0.0797067 0.221611 0.0177274 0.0781558 0.21152 0.0187913 0.0797067 0.221611 0.0177274 0.0781558 0.21152 0.0187913 0.0797067 0.221611 0.00561652 0.0703128 0.221718 0.0187913 0.0797067 0.221611 0.0239199 0.0915428 0.227258 0.072386 0.120511 0.215804 0.0833691 0.120863 0.211682 0.135787 0.141087 0.213919 0.136501 0.130969 0.212136 0.135787 0.141087 0.213919 0.136501 0.130969 0.212136 0.135787 0.141087 0.213919 0.147776 0.150492 0.218324 0.135787 0.141087 0.213919 0.144028 0.15755 0.213119 0.135787 0.141087 0.213919 0.128837 0.159778 0.210211 0.135787 0.141087 0.213919 0.1464
[...]
<PointData Scalars="F_N">
<DataArray type="Float32" Name="F_N" format="ascii">
0.0684755 0.0684755 0.0118323 0.0118323 0.00374351 0.00374351 0.0100607 0.0100607 0.0237979 0.0237979 0 0 0 0 0.000167756 0.000167756 0.000227805 0.000227805 0.00389489 0.00389489 0.026424 0.026424 0.00225906 0.00225906 0.00322149 0.00322149 0.000393338 0.000393338 0.000251567 0.000251567 0.00555944 0.00555944 0.000958578 0.000958578 0.000133979 0.000133979 0.00225625 0.00225625 0.00411298 0.00411298 0.000186863 0.000186863 0.108309 0.108309 0.0771515 0.0771515 0 0 0 0 0.0148635 0.0148635 0.0177183 0.0177183 0.00442808 0.00442808 0.00481223 0.00481223 0.0277398 0.0277398 0.00431061 0.00431061 0.0219435 0.0219435 0.00834241 0.00834241 0.000127325 0.000127325 0.0245989 0.0245989 0.0109728 0.0109728 0.0449885 0.0449885 0 0 0 0 0.00872007 0.00872007 0.00311383 0.00311383 0.0122478 0.0122478 0.021054 0.021054 0.00344151 0.00344151 0.0388087 0.0388087 0.0359019 0.0359019 0.00156539 0.00156539 0.0714462 0.0714462 0.0101292 0.0101292 0.0127294 0.0127294 0.0114017 0.0114017 0.00646669 0.00646669 0.000107277 0.000107277 0.00691056 0.00691056 0.00346247 0.00346247 0.0213706 0.0213706 0.00478888 0.00478888 0.332903 0.332903 0.315283 0.315283 0.214452 0.214452 0.0521444 0.0521444 0.00223857 0.00223857 0.00499521 0.00499521 0.00569604 0.00569604 0.0151736 0.0151736 0.0307359 0.0307359 9.63082e-05 9.63082e-05 0.0137951 0.0137951 0.00884063 0.00884063 0.00135271 0.00135271 0.0613572 0.0613572 0.0406267 0.0406267 5.45823e-06 5.45823e-06 0.000112767 0.000112767 0.00861304 0.00861304 0.0112771 0.0112771 0.0376732 0.0376732 0.0246197 0.0246197 0.0814905 0.0814905 0.159294 0.159294 0.170807 0.170807 0.000775114 0.000775114 0.0948584 0.0948584 0.012035 0.012035 0.178054 0.178054 0.17316 0.17316 0.0906106 0.0906106 0.018289 0.018289 0.124342 0.124342 0.0188876 0.0188876 0.099486 0.099486 0.245943 0.245943 0.0426818 0.0426818 0.0353777 0.0353777 0.012186 0.012186 0.0187607 0.0187607 0.091899 0.091899 0.139391 0.139391 0.108421 0.108421 0.0197011 0.0197011 0.0518061 0.0518061 0.0343499 0.0343499 0.0984828 0.0984828 0.191457 0.191457 0.0783097 0.0783097 0.105498 0.105498 0.00733432 0.00733432 0.177298 0.177298 1.99047e-07 1.99047e-07 0.000494792 0.000494792 0.0833103 0.0833103 0.040987 0.040987 0.0231183 0.0231183 0.0409211 0.0409211 0.0629958 0.0629958 0.00758218 0.00758218 0.000728016 0.000728016 0.0155035 0.0155035 0.00146564 0.00146564 0 0 0.00690281 0.00690281 0.35782 0.35782 0.00958686 0.00958686 0.0535687 0.0535687 0.06141 0.06141 0.0274095 0.0274095 0.0275729 0.0275729 0.0468593 0.0468593 0.00654451 0.00654451 0.00811638 0.00811638 0.0462075 0.0462075 0.0666282 0.0666282 0.0231755 0.0231755 0.039775 0.039775 0.00948192 0.00948192 0.00800328 0.00800328 0.0172848 0.0172848 0.00182283 0.00182283 0.00084309 0.00084309 0.0713015 0.0713015 0.00064608 0.00064608 0.170844 0.170844 0.0203859 0.0203859 0.02765 0.02765 1.41462e-05 1.41462e-05 0.000107457 0.000107457 0.00600238 0.00600238 0.00472665 0.00472665 0.122921 0.122921 0.122471 0.122471 0.0349529 0.0349529 0.00645236 0.00645236 0.0335279 0.0335279 0.131522 0.131522 0.0193563 0.0193563 0.0180492 0.0180492 0.00321441 0.00321441 0.00749392 0.00749392 0.0527852 0.0527852 1.02399e-05 1.02399e-05 0.00022212 0.00022212 0.0387651 0.0387651 0.0105338 0.0105338 0.0327351 0.0327351 0.0131657 0.0131657 0.0389797 0.0389797 0.120901 0.120901 0.235515 0.235515 0.483784 0.483784 0.055643 0.055643 0.0023325 0.0023325 0.000644207 0.000644207 0.00661951 0.00661951 0.00615981 0.00615981 0.0596997 0.0596997 0.106929 0.106929 0.180367 0.180367 0.341045 0.341045 0.119465 0.119465 0.115074 0.115074 0.0325225 0.0325225 0.157486 0.157486 0.00885113 0.00885113 0.22927 0.22927 0.0154557 0.0154557 0.0112922 0.0112922 0.000696592 0.000696592 0.0395675 0.0395675 0.0358646 0.0358646 0.0381337 0.0381337 0.197492 0.197492 0.00287491 0.00287491 0.0698767 0.0698767 0.0134583 0.0134583 0.117059 0.117059 0.154379 0.154379 2.75423e-05 2.75423e-05 0.0698904 0.0698904 0.196223 0.196223 0.0149854 0.0149854 0.023347 0.023347 0.00162781 0.00162781 0.0306882 0.0306882 0.000211265 0.000211265 0.00362496 0.00362496 0.0258646 0.0258646 0.0197728 0.0197728 0.317957 0.317957 0.367457 0.367457 0.340064 0.340064 0.317688 0.317688 0.00135513 0.00135513 0.167098 0.167098 0.0180734 0.0180734 0.0467467 0.0467467 0.0594369 0.0594369 0.00604065 0.00604065 0.000170166 0.000170166 0.00191705 0.00191705 0.0333313 0.0333313 0.00601761 0.00601761 0.0607791 0.0607791 0.0104758 0.0104758 0.13539 0.13539 0.00730429 0.00730429 0.00123157 0.00123157 0.0453256 0.0453256 0.00251339 0.00251339 0.0205658 0.0205658 0.128864 0.128864 0.0100307 0.0100307 0.0459962 0.0459962 0.0366624 0.0366624 0.0502833 0.0502833 0.0232669 0.0232669 0.0149486 0.0149486 0.137409 0.137409 0.0102753 0.0102753 0.00178303 0.00178303 0.0390518 0.0390518 0.000504143 0.000504143 0.0624851 0.0624851 0.000485107 0.000485107 0.000309586 0.000309586 0.00409664 0.00409664 7.3423e-05 7.3423e-05 0.00463944 0.00463944 0.0133477 0.0133477 0.0116937 0.0116937 8.32681e-05 8.32681e-05 0.0156573 0.0156573 0.225037 0.225037 0.100677 0.100677 0.0144748 0.0144748 0.0120317 0.0120317 0.0131984 0.0131984 0.0259943 0.0259943 0.0650773 0.0650773 0.00142617 0.00142617 0.0198563 0.0198563 0.020041 0.020041 0.0351496 0.0351496 0.0315322 0.0315322 0.0110269 0.0110269 0.020718 0.020718 0.0965372 0.0965372 0.0682661 0.0682661 0.0191388 0.0191388 0.00161313 0.00161313 0.205751 0.205751 0.0488594 0.0488594 0.00114785 0.00114785 0.0165857 0.0165857 0.0280594 0.0280594 0.0892272 0.0892272 0.0682762 0.0682762 0.0222287 0.0222287 0.020336 0.020336 0.00214165 0.00214165 0.044053 0.044053 0.0373384 0.0373384 0.0155368 0.0155368 0.0162513 0.0162513 0.00160752 0.00160752 0.0472456 0.0472456 0.0880074 0.0880074 0.00119002 0.00119002 0.00451232 0.00451232 0.0109261 0.0109261 0.0155365 0.0155365 0.0976901 0.0976901 0.0315534 0.0315534 0.00966515 0.00966515 0.0123484 0.0123484 0.000246847 0.000246847 0.0328559 0.0328559 0.0433153 0.0433153 0.0124135 0.0124135 7.31983e-05 7.31983e-05 0.0336356 0.0336356 0.180708 0.180708 0.171976 0.171976 0.169868 0.169868 0.200876 0.200876 0.00404743 0.00404743 0.014833 0.014833 0.0415099 0.0415099 0.147337 0.147337 0.00380257 0.00380257 0.204052 0.204052 0.0348849 0.0348849 0.0741211 0.0741211 0.00466383 0.00466383 0.0284406 0.0284406 0.0390842 0.0390842 0.0666182 0.0666182 0.000141393 0.000141393 0.080157 0.080157 0.0298963 0.0298963 0.0359108 0.0359108 0.0274165 0.0274165 0.000827639 0.000827639 0.000520102 0.000520102 0.00543457 0.00543457 0.0648375 0.0648375 9.11398e-05 9.11398e-05 0.00824065 0.00824065 0.0339154 0.0339154 0.0308757 0.0308757 0.0266016 0.0266016 0.0206931 0.0206931 0.00687272 0.00687272 0.0291074 0.0291074 0.00723135 0.00723135 0.0214389 0.0214389 0.0117351 0.0117351 0.211871 0.211871 0.0314144 0.0314144 0.00107665 0.00107665 0.0229735 0.0229735 0.00225886 0.00225886 0.0273598 0.0273598 0.0585439 0.0585439 0.00104443 0.00104443 0.00359755 0.00359755 0.0392071 0.0392071 0.0910436 0.0910436 0.00406069 0.00406069 0.0007403 0.0007403 0.0118171 0.0118171 0.0380205 0.0380205 0.144027 0.144027 0.0234551 0.0234551 0.138172 0.138172 0.0385095 0.0385095 0.0744365 0.0744365 0.149262 0.149262 0.0046199 0.0046199 0.0630435 0.0630435 0.381554 0.381554 0.00533441 0.00533441 0.00931977 0.00931977 0.00922335 0.00922335 0.00268251 0.00268251 2.17283e-05 2.17283e-05 0.00278352 0.00278352 0.00175788 0.00175788 0.00924409 0.00924409 0.00295769 0.00295769 0.000627792 0.000627792 3.61461e-05 3.61461e-05 0.00120917 0.00120917 0 0 0.00026114 0.00026114 0.00430412 0.00430412 0.0123896 0.0123896 0.0850735 0.0850735 0.0027664 0.0027664 0.0421484 0.0421484 0.000478821 0.000478821 0.0215055 0.0215055 0.189232 0.189232 0.0542521 0.0542521 0.0304945 0.0304945 0.128281 0.128281 0.00598593 0.00598593 0.00577146 0.00577146 0.00245026 0.00245026 0.00582645 0.00582645 0.142376 0.142376 0.00145536 0.00145536 0.00888021 0.00888021 0.0280775 0.0280775 0.0276768 0.0276768 0.122975 0.122975 0.0687502 0.0687502 0.0115807 0.0115807 0.126837 0.126837 0.0750489 0.0750489 0.00154543 0.00154543 0.0037735 0.0037735 0.0271884 0.0271884 0.0118253 0.0118253 0.0392394 0.0392394 0.026217 0.026217 7.5258e-05 7.5258e-05 0.000855994 0.000855994 0.0044782 0.0044782 0.00175205 0.00175205 0.0453775 0.0453775 0.00645012 0.00645012 0.0160023 0.0160023 0.0470354 0.0470354 0.0299081 0.0299081 0 0 0 0 0.0426695 0.0426695 0.00174915 0.00174915 0.00449246 0.00449246 0.00499915 0.00499915 0.00237457 0.00237457 0.0293237 0.0293237 0.00224272 0.00224272 0.0163536 0.0163536 0.0250049 0.0250049 0.00148064 0.00148064 0.0395105 0.0395105 0.0673458 0.0673458 0.00330547 0.00330547 0.018028 0.018028 0.139628 0.139628 0 0 0.319483 0.319483 0.012397 0.012397 0.00821408 0.00821408 0.018678 0.018678 0.0320733 0.0320733 0.00488968 0.00488968 0.00121319 0.00121319 0.029231 0.029231 0.0170642 0.0170642 0.0114271 0.0114271 0.0101869 0.0101869 0.0456751 0.0456751 0.116735 0.116735 0.03031 0.03031 0.00768428 0.00768428 0.0166868 0.0166868 0.00522336 0.00522336 0.00112042 0.00112042 0.0027382 0.0027382 0.00525673 0.00525673 0.000407834 0.000407834 0.0106031 0.0106031 0.0525667 0.0525667 0.000287484 0.000287484 0.0418694 0.0418694 0.0159721 0.0159721 0.0485834 0.0485834 0.000351588 0.000351588 0.00516433 0.00516433 0.0134612 0.0134612 0.00488824 0.00488824 0.00600622 0.00600622 0.000192722 0.000192722 0.011792 0.011792 0.0578283 0.0578283 0.0509285 0.0509285 0.00508501 0.00508501 0.00867672 0.00867672 0.0139621 0.0139621 0.0463365 0.0463365 0.020916 0.020916 0.0029218 0.0029218 0.00357641 0.00357641 0.0297014 0.0297014 0.00693795 0.00693795 0.0066229 0.0066229 0.0236754 0.0236754 0.00295027 0.00295027 0.00596433 0.00596433 0.00775331 0.00775331 0.0134336 0.0134336 0.0089954 0.0089954 0.132713 0.132713 0.00324051 0.00324051 0.0869783 0.0869783 0.00225982 0.00225982 0.0703306 0.0703306 0.131326 0.131326 0.0434112 0.0434112 0.0439893 0.0439893 0.00809476 0.00809476 0.00316458 0.00316458 0 0 0 0 0.081136 0.081136 0.129968 0.129968 0.000232394 0.000232394 0.0248627 0.0248627 0.103944 0.103944 0.140627 0.140627 0.00682245 0.00682245 0.168452 0.168452 0.218956 0.218956 0.0405127 0.0405127 0.01183 0.01183 0.0196219 0.0196219 0.00308749 0.00308749 0 0 0.0260175 0.0260175 0.00350154 0.00350154 0.00537227 0.00537227 0.0187351 0.0187351 0.00789139 0.00789139 0.0960075 0.0960075 0.00140467 0.00140467 0.0771258 0.0771258 0.0446954 0.0446954 0.000846941 0.000846941 0.0188377 0.0188377 0.105973 0.105973 0.108265 0.108265 0.0794556 0.0794556 0.0214622 0.0214622 0.0355722 0.0355722 0.00372196 0.00372196 0.0148648 0.0148648 0.0187967 0.0187967 0.00761451 0.00761451 0.00417136 0.00417136 0.00965555 0.00965555 0.0440729 0.0440729 0.00717217 0.00717217 0.0216525 0.0216525 0.00220168 0.00220168 0.101465 0.101465 0.0154281 0.0154281 0.00509341 0.00509341 0.0570396 0.0570396 0.0286551 0.0286551 0.00232468 0.00232468 0.0210213 0.0210213 0.00852421 0.00852421 0.16905 0.16905 0.0606604 0.0606604 0.0110482 0.0110482 0.0128446 0.0128446 0.0184383 0.0184383 0.0271023 0.0271023 0.149245 0.149245 0.0412075 0.0412075 0.144472 0.144472 0.0108245 0.0108245 0.0124848 0.0124848 0.0145221 0.0145221 0.0105288 0.0105288 0.0154928 0.0154928 0.00807679 0.00807679 0.0296146 0.0296146 0.635696 0.635696 0.00131206 0.00131206 0.632012 0.632012 0.00112736 0.00112736 0.0335023 0.0335023 0.0511028 0.0511028 0.00700952 0.00700952 0.0364259 0.0364259 0.19992 0.19992 0.120136 0.120136 0.0538295 0.0538295 0.0538295 0.0538295 0.116679 0.116679 0.0431969 0.0431969 0.25023 0.25023 0.0241094 0.0241094 0.0120474 0.0120474 0.0372638 0.0372638 0.11811 0.11811 0.0011014 0.0011014 0.0239667 0.0239667 0.00615539 0.00615539 0.0477553 0.0477553 0.0454139 0.0454139 0.0011593 0.0011593 0.00293343 0.00293343 0.00292205 0.00292205 0.0782895 0.0782895 0.117542 0.117542 0.00178028 0.00178028 0.0148115 0.0148115 0.0183923 0.0183923 0.0534818 0.0534818 0.0297076 0.0297076 0.00564182 0.00564182 0.0699231 0.0699231 0.00252937 0.00252937 0.0304929 0.0304929 0.102935 0.102935 0.111229 0.111229 0.0812043 0.0812043 0.0175216 0.0175216 0.0561236 0.0561236 0.00636546 0.00636546 0.0136031 0.0136031 0.033745 0.033745 0.0537679 0.0537679 0.00797021 0.00797021 0.0900653 0.0900653 0.372177 0.372177 0.0744477 0.0744477 0.00589315 0.00589315 0.0128164 0.0128164 0.0658368 0.0658368 0.000144348 0.000144348 0.0393089 0.0393089 0.0104835 0.0104835 0 0 0.001371 0.001371 0.000371702 0.000371702 0.0500268 0.0500268 0.0897237 0.0897237 0.0099989 0.0099989 0.00537368 0.00537368 0.020572 0.020572 0.0633019 0.0633019 0.191911 0.191911 0.000854193 0.000854193 0.0372098 0.0372098 0.00724517 0.00724517 3.46396e-05 3.46396e-05 0.0204552 0.0204552 0.00181892 0.00181892 0.185292 0.185292 0.0283527 0.0283527 0.0908045 0.0908045 0.0927824 0.0927824 0.0146058 0.0146058 0.00747106 0.00747106 0.00387965 0.00387965 0.0117387 0.0117387 0.00691209 0.00691209 0.0420866 0.0420866 0.00600141 0.00600141 0.0190364 0.0190364 0.121505 0.121505 4.79524e-05 4.79524e-05 0.012076 0.012076 0.00235174 0.00235174 0.10754 0.10754 0.000212221 0.000212221 0.000376773 0.000376773 0.00173614 0.00173614 0.0235738 0.0235738 0.00420136 0.00420136 0.00135074 0.00135074 0.000684582 0.000684582 0.0229178 0.0229178 0.0111285 0.0111285 0.0036858 0.0036858 0.0480413 0.0480413 8.43072e-05 8.43072e-05 0.0389377 0.0389377 0.0764205 0.0764205 0.0403033 0.0403033 0.0113083 0.0113083 0.00156119 0.00156119 0.00140115 0.00140115 0.00121315 0.00121315 0.00142368 0.00142368 0.0139445 0.0139445 0.00899546 0.00899546 0.0780918 0.0780918 0.0965656 0.0965656 0.0125662 0.0125662 0.0172397 0.0172397 0.0872037 0.0872037 0.0107999 0.0107999 0.175078 0.175078 0.0053368 0.0053368 0.0725152 0.0725152 0.00334729 0.00334729 0.0249148 0.0249148 0.089362 0.089362 0.0957995 0.0957995 0.141892 0.141892 0.155866 0.155866 0.0663612 0.0663612 0.147111 0.147111 0.156593 0.156593 0.152272 0.152272 0.148711 0.148711 0.0038064 0.0038064 0.00560812 0.00560812 0.0186053 0.0186053 0.216427 0.216427 0.0483163 0.0483163 0.0149213 0.0149213 0.000302515 0.000302515 0.0714883 0.0714883 0.0106696 0.0106696 0.0249019 0.0249019 0.0139194 0.0139194 0.00663981 0.00663981 0.000111645 0.000111645 0.00231783 0.00231783 0.000141973 0.000141973 0.00296057 0.00296057 0.00395088 0.00395088 0.0159366 0.0159366 0.598692 0.598692 0.0334145 0.0334145 0.0450749 0.0450749 0.0294977 0.0294977 0.124813 0.124813 0.319751 0.319751 0.13881 0.13881 0.00534013 0.00534013 0.0709542 0.0709542 0.0689784 0.0689784 0.010533 0.010533 0.00103962 0.00103962 0.0296867 0.0296867 0.173481 0.173481 0.0692324 0.0692324 0.0100013 0.0100013 0.0364493 0.0364493 0.00974521 0.00974521 0.0132395 0.0132395 0.0642355 0.0642355 0.18767 0.18767 0.0271553 0.0271553 0.0915543 0.0915543 0.0915543 0.0915543 0.0240922 0.0240922 0.0137498 0.0137498 0.0644299 0.0644299 0.0644299 0.0644299 0.0358443 0.0358443 0.00430674 0.00430674 0.00100497 0.00100497 0.00217158 0.00217158 0.0365414 0.0365414 0.0555389 0.0555389 0.019361 0.019361 0.0481331 0.0481331 0.00226566 0.00226566 0.0417066 0.0417066 0.201216 0.201216 0 0 0.0127159 0.0127159 0.06653 0.06653 0.0390906 0.0390906 0.0142078 0.0142078 0.000525387 0.000525387 0.00358791 0.00358791 0.0280214 0.0280214 0.0218399 0.0218399 0.0172488 0.0172488 0.0151445 0.0151445 0.0424881 0.0424881 0.00933193 0.00933193 0.0116453 0.0116453 0.0654592 0.0654592 0.00755241 0.00755241 0.0173156 0.0173156 0.000166269 0.000166269 0.000658047 0.000658047 0.00627715 0.00627715 0.00798566 0.00798566 0.0191212 0.0191212 0.0404538 0.0404538 0.0232502 0.0232502 0.0382605 0.0382605 0.00613301 0.00613301 0.0132659 0.0132659 0.32079 0.32079 0.0152285 0.0152285 0.138239 0.138239 0.00239067 0.00239067 0.0205934 0.0205934 0.0135632 0.0135632 0.00359142 0.00359142 0.00159186 0.00159186 0.00558471 0.00558471 0.0142987 0.0142987 0.0144506 0.0144506 0.0526647 0.0526647 0.145138 0.145138 0.00387998 0.00387998 0.0178807 0.0178807 0.0856231 0.0856231 7.22019e-05 7.22019e-05 0.0527853 0.0527853 0.0496003 0.0496003 0.0036077 0.0036077 0.00514839 0.00514839 0.0123594 0.0123594 0.00627285 0.00627285 0.00600872 0.00600872 0.00419545 0.00419545 0.00422198 0.00422198 0.0141618 0.0141618 0.0164661 0.0164661 0.0645119 0.0645119 0.108143 0.108143 0.000601653 0.000601653 0.0223888 0.0223888 0.00612389 0.00612389 0.0102638 0.0102638 0.0178745 0.0178745 0.0364337 0.0364337 0.0421132 0.0421132 0.0326521 0.0326521 0.073411 0.073411 0.00604507 0.00604507 0.0132635 0.0132635 0.0146798 0.0146798 0.045917 0.045917 0.0307652 0.0307652 0.0116988 0.0116988 0.00611777 0.00611777 0.0374742 0.0374742 0.0389507 0.0389507 0.0668272 0.0668272 0.139763 0.139763 0.0299371 0.0299371 0.0071497 0.0071497 0.000875509 0.000875509 0.00526885 0.00526885 0.00791038 0.00791038 0.00399516 0.00399516 0.0165824 0.0165824 0.0224638 0.0224638 0.000124785 0.000124785 0.00801232 0.00801232 0.0217659 0.0217659 0.00300153 0.00300153 0.0922005 0.0922005 0.125322 0.125322 0 0 0.0264154 0.0264154 0.060609 0.060609 0.01532 0.01532 0.120946 0.120946 0.0691673 0.0691673 0.0624736 0.0624736 0.0127218 0.0127218 0.00358894 0.00358894 0.020289 0.020289 0 0 0.0198488 0.0198488 0.0022853 0.0022853 0.0129498 0.0129498 0.133863 0.133863 0.00427338 0.00427338 0.0031114 0.0031114 0.064463 0.064463 0.0221357 0.0221357 0.0154012 0.0154012 0.0173302 0.0173302 0.0460312 0.0460312 0.00191482 0.00191482 0.000563525 0.000563525 0.0233248 0.0233248 0.0084075 0.0084075 0.0244834 0.0244834 0.0127351 0.0127351 0.0139142 0.0139142 0.0401154 0.0401154 0.0132315 0.0132315 0.0535202 0.0535202 0.013068 0.013068 0.119283 0.119283 0.0953784 0.0953784 0.121868 0.121868 0.0239099 0.0239099 0.0672872 0.0672872 0.00982262 0.00982262 0.00212408 0.00212408 1.46735e-05 1.46735e-05 0.0556835 0.0556835 0.0483256 0.0483256 0.191139 0.191139 0.00426338 0.00426338 0.00867425 0.00867425 0.0305178 0.0305178 0.175206 0.175206 0.0147613 0.0147613 0.0620006 0.0620006 0.238824 0.238824 0.00247032 0.00247032 0.0131763 0.0131763 0.09077 0.09077 0.00116118 0.00116118 0.00111177 0.00111177 0.00723797 0.00723797 0.0114601 0.0114601 0.0220103 0.0220103 0.000475949 0.000475949 0.0226548 0.0226548 0.0643205 0.0643205 0.0943812 0.0943812 0.0331079 0.0331079 0.000137692 0.000137692 0.0154946 0.0154946 0.0183199 0.0183199 0.044333 0.044333 3.23635e-05 3.23635e-05 0.00188849 0.00188849 0.138335 0.138335 0.138335 0.138335 0.18799 0.18799 0.0467197 0.0467197 0.329565 0.329565 0.00118841 0.00118841 0.00405412 0.00405412 0.0209576 0.0209576 0.0159363 0.0159363 0.0317391 0.0317391 0.0182253 0.0182253 0 0 0.0027793 0.0027793 0.00398918 0.00398918 0.0122602 0.0122602 0.0140856 0.0140856 0.069627 0.069627 0.0904553 0.0904553 0.00860055 0.00860055 0.00159335 0.00159335 0.00733646 0.00733646 0.10903 0.10903 0.010912 0.010912 0.0157677 0.0157677 0.0193376 0.0193376 0.012176 0.012176 0.0130322 0.0130322 0.0169401 0.0169401 0.0157732 0.0157732 0.00427777 0.00427777 0.145263 0.145263 0.00341996 0.00341996 0.0338597 0.0338597 0.0708569 0.0708569 0.00544875 0.00544875 0.0725618 0.0725618 0.0779112 0.0779112 0.00127941 0.00127941 0.0164893 0.0164893 0.0160029 0.0160029 0.00201112 0.00201112 0.00566807 0.00566807 0.00365338 0.00365338 3.14661e-05 3.14661e-05 0.0208231 0.0208231 0.0307647 0.0307647 0.000214836 0.000214836 2.10155e-05 2.10155e-05 0.00381037 0.00381037 0.0180287 0.0180287 0.0153003 0.0153003 0.0018303 0.0018303 0.00179102 0.00179102 0.00564026 0.00564026 0.00512393 0.00512393 0.0265454 0.0265454 0.0201533 0.0201533 0.00337125 0.00337125 0.0596285 0.0596285 0.0536113 0.0536113 0.25481 0.25481 0.198268 0.198268 0.00882038 0.00882038 0.00956637 0.00956637 0.0361013 0.0361013 0.00651386 0.00651386 0.0104855 0.0104855 0.00128184 0.00128184 0.00208439 0.00208439 0.00406535 0.00406535 0.00406535 0.00406535 0.00112394 0.00112394 0.0279143 0.0279143 0.00526799 0.00526799 0.0181791 0.0181791 0.0436226 0.0436226 0.0282642 0.0282642 0.0810787 0.0810787 0.0730974 0.0730974 0.00490155 0.00490155 0.074313 0.074313 0.00273111 0.0027