<?xml version="1.0"?>
<VTKFile type="PolyData" version="0.1" byte_order="LittleEndian" >
<PolyData>
<Piece NumberOfPoints="22528" NumberOfVerts="0" NumberOfLines="11264" NumberOfStrips="0" NumberOfPolys="0">
<Points>
<DataArray type="Float32" NumberOfComponents="3" format="ascii">
0.147523 0.204742 0.335791 0.135207 0.215025 0.336139 0.147523 0.204742 0.335791 0.135207 0.215025 0.336139 0.147523 0.204742 0.335791 0.1602 0.208453 0.331871 0.0126481 0.148098 0.330985 0.00733872 0.159609 0.337109 0.0126481 0.148098 0.330985 0.0224989 0.151613 0.344028 0.0126481 0.148098 0.330985 -0.000200012 0.147641 0.326018 0.0665651 0.138511 0.330219 0.0712861 0.155862 0.331466 0.0133361 0.179968 0.33491 0.0345188 0.186444 0.330556 0.0133361 0.179968 0.33491 0.0124602 0.189993 0.336414 0.0133361 0.179968 0.33491 0.00833395 0.181281 0.330874 0.0133361 0.179968 0.33491 0.00833395 0.181281 0.330874 0.0133361 0.179968 0.33491 -0.000200032 0.177377 0.335557 0.103511 0.172062 0.348106 0.104817 0.181303 0.351392 0.103511 0.172062 0.348106 0.111642 0.171888 0.350642 0.103511 0.172062 0.348106 0.122175 0.171761 0.347208 0.103511 0.172062 0.348106 0.114485 0.158052 0.345979 0.146887 0.142601 0.343529 0.144627 0.161332 0.348022 0.133563 0.186381 0.332248 0.146526 0.196169 0.339873 0.133563 0.186381 0.332248 0.148075 0.185693 0.332095 0.108722 0.196172 0.34062 0.114182 0.201571 0.332007 0.108722 0.196172 0.34062 0.116279 0.190966 0.334778 0.108722 0.196172 0.34062 0.116279 0.190966 0.334778 0.108722 0.196172 0.34062 0.116265 0.194379 0.345645 0.108722 0.196172 0.34062 0.128031 0.201007 0.339855 0.0358764 0.175689 0.332035 0.0345188 0.186444 0.330556 0.0358764 0.175689 0.332035 0.0335685 0.184988 0.336914 0.0705874 0.220076 0.33761 0.060541 0.216803 0.338278 0.0705874 0.220076 0.33761 0.087646 0.212618 0.333187 0.0705874 0.220076 0.33761 0.0932302 0.222576 0.332565 0.0135023 0.208886 0.330289 0.0232144 0.225044 0.333264 0.0135023 0.208886 0.330289 0.0198213 0.232138 0.337768 0.0125282 0.134877 0.33217 0.0126481 0.148098 0.330985 0.0125282 0.134877 0.33217 -0.000200012 0.131675 0.327973 0.0799228 0.195943 0.331282 0.087646 0.212618 0.333187 0.0799228 0.195943 0.331282 0.085203 0.192082 0.338945 0.0476236 0.132942 0.331167 0.0559181 0.129849 0.345397 0.0644905 0.184668 0.339947 0.0611917 0.185832 0.332024 0.0644905 0.184668 0.339947 0.0799228 0.195943 0.331282 0.0522835 0.23813 0.334693 0.0535059 0.240104 0.343423 0.0522835 0.23813 0.334693 0.0622665 0.239258 0.339719 0.0522835 0.23813 0.334693 0.0622665 0.239258 0.339719 0.0522835 0.23813 0.334693 0.0540403 0.2502 0.341073 0.078318 0.126857 0.339614 0.0880569 0.12256 0.346108 0.078318 0.126857 0.339614 0.0858121 0.128188 0.358745 0.078318 0.126857 0.339614 0.0891119 0.137012 0.334447 0.078318 0.126857 0.339614 0.0896849 0.1262 0.343008 0.078318 0.126857 0.339614 0.0896849 0.1262 0.343008 0.0349323 0.129208 0.331689 0.0476236 0.132942 0.331167 0.0349323 0.129208 0.331689 0.0476236 0.132942 0.331167 0.0674309 0.147152 0.334345 0.0785769 0.15333 0.346687 0.0674309 0.147152 0.334345 0.0712861 0.155862 0.331466 0.0674309 0.147152 0.334345 0.0732895 0.151641 0.342332 0.063972 0.238582 0.330103 0.0535059 0.240104 0.343423 0.063972 0.238582 0.330103 0.0674415 0.2502 0.323608 0.130075 0.200804 0.332089 0.146526 0.196169 0.339873 0.130075 0.200804 0.332089 0.138948 0.19259 0.340553 0.0688637 0.238099 0.334113 0.063972 0.238582 0.330103 0.0688637 0.238099 0.334113 0.0785637 0.241327 0.347872 0.0688637 0.238099 0.334113 0.0679032 0.2485 0.338339 0.0688637 0.238099 0.334113 0.0535059 0.240104 0.343423 0.108134 0.145994 0.333572 0.116598 0.161353 0.334514 0.108134 0.145994 0.333572 0.104122 0.154013 0.336506 0.108134 0.145994 0.333572 0.113732 0.139579 0.331431 0.108134 0.145994 0.333572 0.113732 0.139579 0.331431 0.108134 0.145994 0.333572 0.12322 0.145478 0.338043 0.108134 0.145994 0.333572 0.114778 0.130239 0.345649 0.0642716 0.197965 0.334679 0.0644905 0.184668 0.339947 0.0642716 0.197965 0.334679 0.0644905 0.184668 0.339947 0.0642716 0.197965 0.334679 0.0611917 0.185832 0.332024 0.111191 0.157115 0.342691 0.114485 0.158052 0.345979 0.10751 0.230523 0.333672 0.100749 0.232837 0.330301 0.10751 0.230523 0.333672 0.0932302 0.222576 0.332565 0.10751 0.230523 0.333672 0.112343 0.232965 0.341329 0.10751 0.230523 0.333672 0.116421 0.230832 0.339346 0.10751 0.230523 0.333672 0.116421 0.230832 0.339346 0.10751 0.230523 0.333672 0.120671 0.23616 0.332722 0.10751 0.230523 0.333672 0.120671 0.23616 0.332722 0.0294419 0.171665 0.334533 0.0358764 0.175689 0.332035 0.0294419 0.171665 0.334533 0.0358764 0.175689 0.332035 0.0294419 0.171665 0.334533 0.0335685 0.184988 0.336914 0.0294419 0.171665 0.334533 0.0335685 0.184988 0.336914 0.0294419 0.171665 0.334533 0.0318141 0.187215 0.340729 0.0294419 0.171665 0.334533 0.0236189 0.184886 0.34237 0.150676 0.17252 0.334212 0.143833 0.15657 0.331007 0.150676 0.17252 0.334212 0.156651 0.185236 0.336116 0.150676 0.17252 0.334212 0.148075 0.185693 0.332095 0.0812326 0.124821 0.332002 0.0891119 0.137012 0.334447 0.0812326 0.124821 0.332002 0.0903036 0.129545 0.339839 0.0086675 0.197425 0.331831 0.0135023 0.208886 0.330289 0.0086675 0.197425 0.331831 -0.000200054 0.196087 0.32148 0.107836 0.169529 0.344157 0.103511 0.172062 0.348106 0.107836 0.169529 0.344157 0.104817 0.181303 0.351392 0.107836 0.169529 0.344157 0.129369 0.159226 0.339349 0.107836 0.169529 0.344157 0.125011 0.176794 0.339959 0.107836 0.169529 0.344157 0.114485 0.158052 0.345979 0.037205 0.143337 0.330208 0.0287785 0.150115 0.334296 0.037205 0.143337 0.330208 0.0287785 0.150115 0.334296 0.00833395 0.181281 0.330874 0.0086675 0.197425 0.331831 0.00833395 0.181281 0.330874 -0.000200052 0.187115 0.339845 0.0949066 0.220234 0.336273 0.0932302 0.222576 0.332565 0.0679032 0.2485 0.338339 0.0550832 0.2502 0.334337 0.0679032 0.2485 0.338339 0.0701552 0.2502 0.325099 0.148075 0.185693 0.332095 0.1602 0.180859 0.327721 0.0198213 0.232138 0.337768 0.0282257 0.225302 0.336925 0.0864894 0.144352 0.34085 0.0870921 0.159116 0.333127 0.0864894 0.144352 0.34085 0.0785769 0.15333 0.346687 0.0864894 0.144352 0.34085 0.0732895 0.151641 0.342332 0.0864894 0.144352 0.34085 0.0732895 0.151641 0.342332 0.0814465 0.211981 0.332246 0.0705874 0.220076 0.33761 0.0814465 0.211981 0.332246 0.087646 0.212618 0.333187 0.0335685 0.184988 0.336914 0.0318141 0.187215 0.340729 0.0526763 0.18483 0.342339 0.0335685 0.184988 0.336914 0.0526763 0.18483 0.342339 0.0637613 0.186549 0.346806 0.0526763 0.18483 0.342339 0.0644905 0.184668 0.339947 0.0137497 0.133851 0.336894 0.0125282 0.134877 0.33217 0.0137497 0.133851 0.336894 0.0125282 0.134877 0.33217 0.0137497 0.133851 0.336894 0.0235601 0.154094 0.340726 0.0273938 0.205803 0.339784 0.0291847 0.209862 0.337478 0.0232144 0.225044 0.333264 0.0282257 0.225302 0.336925 0.0232144 0.225044 0.333264 0.0282257 0.225302 0.336925 0.0232144 0.225044 0.333264 0.0280566 0.222314 0.344871 0.0232144 0.225044 0.333264 0.02857 0.220861 0.330783 0.0232144 0.225044 0.333264 0.02857 0.220861 0.330783 0.0712861 0.155862 0.331466 0.0870921 0.159116 0.333127 0.0921542 0.16618 0.343924 0.107836 0.169529 0.344157 0.146671 0.1822 0.343921 0.1602 0.181903 0.341232 0.0541348 0.169132 0.33359 0.0661072 0.166132 0.338146 0.0164456 0.136844 0.340441 0.0137497 0.133851 0.336894 0.0164456 0.136844 0.340441 0.0137497 0.133851 0.336894 0.0164456 0.136844 0.340441 0.0126481 0.148098 0.330985 0.0164456 0.136844 0.340441 0.0399235 0.142294 0.341521 0.0392449 0.139073 0.337787 0.0476236 0.132942 0.331167 0.0392449 0.139073 0.337787 0.0476236 0.132942 0.331167 0.0392449 0.139073 0.337787 0.0476236 0.132942 0.331167 0.087646 0.212618 0.333187 0.0949066 0.220234 0.336273 0.087646 0.212618 0.333187 0.0949066 0.220234 0.336273 0.127578 0.204687 0.342922 0.129289 0.221493 0.336882 0.127578 0.204687 0.342922 0.125497 0.210161 0.336708 0.0977815 0.197992 0.343972 0.108722 0.196172 0.34062 0.110479 0.138303 0.339781 0.108134 0.145994 0.333572 0.110479 0.138303 0.339781 0.0959856 0.151949 0.342935 0.110479 0.138303 0.339781 0.122851 0.120897 0.339352 0.110479 0.138303 0.339781 0.114778 0.130239 0.345649 0.110479 0.138303 0.339781 0.114778 0.130239 0.345649 0.137113 0.17364 0.343812 0.144733 0.183176 0.339776 0.137113 0.17364 0.343812 0.146671 0.1822 0.343921 0.137113 0.17364 0.343812 0.129883 0.180294 0.356111 0.137113 0.17364 0.343812 0.144627 0.161332 0.348022 0.137113 0.17364 0.343812 0.138395 0.174475 0.360173 0.0159844 0.241961 0.330773 0.0115871 0.2502 0.340771 0.0903036 0.129545 0.339839 0.0896849 0.1262 0.343008 0.0903036 0.129545 0.339839 0.0896849 0.1262 0.343008 0.0903036 0.129545 0.339839 0.0959856 0.151949 0.342935 0.00705408 0.138414 0.338454 0.0164456 0.136844 0.340441 0.00705408 0.138414 0.338454 0.0137497 0.133851 0.336894 0.00705408 0.138414 0.338454 -0.000200021 0.127581 0.334378 0.00705408 0.138414 0.338454 -0.000200015 0.144235 0.32845 0.149135 0.219276 0.342835 0.1602 0.227146 0.340715 0.0778792 0.164787 0.343228 0.0732895 0.151641 0.342332 0.0778792 0.164787 0.343228 0.0732895 0.151641 0.342332 0.0778792 0.164787 0.343228 0.0814401 0.182075 0.342651 0.0778792 0.164787 0.343228 0.0968508 0.173714 0.352671 0.0778792 0.164787 0.343228 0.0881148 0.163735 0.339778 0.0778792 0.164787 0.343228 0.0921542 0.16618 0.343924 0.128031 0.201007 0.339855 0.127578 0.204687 0.342922 0.128031 0.201007 0.339855 0.133563 0.186381 0.332248 0.128031 0.201007 0.339855 0.138948 0.19259 0.340553 0.128031 0.201007 0.339855 0.138948 0.19259 0.340553 0.147771 0.222645 0.335052 0.139843 0.240395 0.345513 0.147771 0.222645 0.335052 0.1602 0.227577 0.331753 0.0746829 0.202709 0.337088 0.0814465 0.211981 0.332246 0.0746829 0.202709 0.337088 0.0881671 0.198916 0.351147 0.156651 0.185236 0.336116 0.146671 0.1822 0.343921 0.156651 0.185236 0.336116 0.1602 0.182197 0.348865 0.0923956 0.147366 0.341845 0.0864894 0.144352 0.34085 0.0923956 0.147366 0.341845 0.104122 0.154013 0.336506 0.0923956 0.147366 0.341845 0.104122 0.154013 0.336506 0.0923956 0.147366 0.341845
[...]
<PointData Scalars="F_N">
<DataArray type="Float32" Name="F_N" format="ascii">
0.00271021 0.00271021 0.0898882 0.0898882 0 0 0.0148426 0.0148426 0.0114574 0.0114574 0.000599618 0.000599618 0.0155707 0.0155707 0.0360854 0.0360854 0.0749889 0.0749889 0.0955546 0.0955546 0.0449073 0.0449073 0.000139351 0.000139351 0.0023652 0.0023652 0.0158893 0.0158893 0.00107204 0.00107204 0.00100302 0.00100302 0.0179133 0.0179133 0.0109519 0.0109519 0.00260923 0.00260923 0.0394839 0.0394839 0.105329 0.105329 0.0267362 0.0267362 0.000679754 0.000679754 0.0227956 0.0227956 0.0342175 0.0342175 0.0587649 0.0587649 0.0084342 0.0084342 0.0105346 0.0105346 0.00525286 0.00525286 0.00399206 0.00399206 0.000738189 0.000738189 0.0217997 0.0217997 0.000127369 0.000127369 0.00225827 0.00225827 0.0109407 0.0109407 0.0249866 0.0249866 0.00213371 0.00213371 0.0295865 0.0295865 0.000431801 0.000431801 0.0287191 0.0287191 0.0179175 0.0179175 0.00213124 0.00213124 0.00592528 0.00592528 0.00689368 0.00689368 0.0364484 0.0364484 0.010275 0.010275 0.0263539 0.0263539 0.160133 0.160133 0.0533376 0.0533376 0.000105531 0.000105531 0.0394266 0.0394266 0.000954115 0.000954115 0.0389371 0.0389371 0.00064452 0.00064452 0.0487739 0.0487739 0.0169968 0.0169968 0.0464026 0.0464026 0.0102135 0.0102135 0.0104751 0.0104751 0.0176784 0.0176784 0.0131329 0.0131329 0.015721 0.015721 0.00968526 0.00968526 0.0132765 0.0132765 0.00871512 0.00871512 0.0222772 0.0222772 0.0343151 0.0343151 0.0151134 0.0151134 0.0461797 0.0461797 0.0272208 0.0272208 0.00197215 0.00197215 0.0106308 0.0106308 0.00198702 0.00198702 0.0551632 0.0551632 0.0262772 0.0262772 0.140918 0.140918 0.0460622 0.0460622 0.00615511 0.00615511 0.0392401 0.0392401 0.0939334 0.0939334 0.130536 0.130536 0.0256959 0.0256959 0.0128601 0.0128601 0.00908117 0.00908117 0.0160911 0.0160911 0.0157106 0.0157106 0.0207559 0.0207559 0.0378998 0.0378998 0.0353323 0.0353323 0.000152714 0.000152714 0.0139647 0.0139647 0.077701 0.077701 0.000960311 0.000960311 0.0146912 0.0146912 0.0534124 0.0534124 0.0105221 0.0105221 0.0145488 0.0145488 0.0155632 0.0155632 0.000189705 0.000189705 0.00622928 0.00622928 0.000232772 0.000232772 0.000253649 0.000253649 0 0 0.0243156 0.0243156 0.000809278 0.000809278 0.000150143 0.000150143 0.000131743 0.000131743 0.00765699 0.00765699 0.00707936 0.00707936 0.00809788 0.00809788 0.0241237 0.0241237 0.0064597 0.0064597 0.00355857 0.00355857 0.00286305 0.00286305 0.0247272 0.0247272 0.0263822 0.0263822 0.0128638 0.0128638 0.000252913 0.000252913 0.00194729 0.00194729 0.0853659 0.0853659 0.0014097 0.0014097 0.0475356 0.0475356 0.00206312 0.00206312 0.00286727 0.00286727 0.0141731 0.0141731 0 0 0.0139477 0.0139477 0.0319251 0.0319251 0.100895 0.100895 0.000934666 0.000934666 0.00733221 0.00733221 0.030312 0.030312 0.133089 0.133089 0.0206697 0.0206697 0.0125327 0.0125327 0.0738924 0.0738924 0.00111448 0.00111448 0.00109084 0.00109084 0.029032 0.029032 0.0143894 0.0143894 0.00782458 0.00782458 0.00135757 0.00135757 0.0498572 0.0498572 0.0371394 0.0371394 0.00324326 0.00324326 0.00899909 0.00899909 0.00196996 0.00196996 0.0014562 0.0014562 0.00600321 0.00600321 0.014302 0.014302 0.0296382 0.0296382 0.0566257 0.0566257 0.00129819 0.00129819 0.0175938 0.0175938 0.00805791 0.00805791 9.27454e-05 9.27454e-05 0.00068079 0.00068079 0 0 0.0178648 0.0178648 0.0260294 0.0260294 0.0357872 0.0357872 0.00493812 0.00493812 0.0342381 0.0342381 0.0254997 0.0254997 0.0356988 0.0356988 0.0167478 0.0167478 0.0380365 0.0380365 0.0512938 0.0512938 0.0221619 0.0221619 0 0 0.00958419 0.00958419 0.00527735 0.00527735 0.0260823 0.0260823 0 0 0.0940989 0.0940989 0.0137154 0.0137154 0.014791 0.014791 0.000913765 0.000913765 0.0280402 0.0280402 0.187321 0.187321 0.00819474 0.00819474 0.0559308 0.0559308 0.0969985 0.0969985 0.101039 0.101039 0.0244952 0.0244952 0.00606284 0.00606284 0.0790741 0.0790741 0.000915127 0.000915127 0.000872529 0.000872529 0.00113191 0.00113191 0.00695503 0.00695503 0.0418739 0.0418739 0.014405 0.014405 0.00566772 0.00566772 0.00427549 0.00427549 0.0254896 0.0254896 0.0553371 0.0553371 0.00378497 0.00378497 0.00255854 0.00255854 0.000685295 0.000685295 0.0608261 0.0608261 0.00437887 0.00437887 6.09556e-05 6.09556e-05 0.00832556 0.00832556 0.00485499 0.00485499 0.0138978 0.0138978 0.00878734 0.00878734 0.0175336 0.0175336 0.0124321 0.0124321 0.0114717 0.0114717 0.0257051 0.0257051 0.0145557 0.0145557 0.000388785 0.000388785 0.0540003 0.0540003 0.00943009 0.00943009 0.0037359 0.0037359 0.0176018 0.0176018 0.026243 0.026243 0.00438245 0.00438245 0.00751797 0.00751797 0.00547226 0.00547226 0.021818 0.021818 0.0904929 0.0904929 0.00615995 0.00615995 0.0382165 0.0382165 0.0242124 0.0242124 0.0145292 0.0145292 0.360148 0.360148 0.0740766 0.0740766 0.0862152 0.0862152 0.0188671 0.0188671 0.0327437 0.0327437 0.000347021 0.000347021 0.0214456 0.0214456 0.00126953 0.00126953 0.0412599 0.0412599 0.00881407 0.00881407 0.000364072 0.000364072 0.00349064 0.00349064 0.0488234 0.0488234 0.0507554 0.0507554 0.043193 0.043193 0.00220738 0.00220738 0.041679 0.041679 0.0826448 0.0826448 0.0190282 0.0190282 0.0014342 0.0014342 0.0132361 0.0132361 0.0425645 0.0425645 0.0327886 0.0327886 0.00378828 0.00378828 0.0360126 0.0360126 0.0398005 0.0398005 0.00822213 0.00822213 0.011465 0.011465 0.00403737 0.00403737 0.0170277 0.0170277 0.0170738 0.0170738 0.00957218 0.00957218 0.027576 0.027576 0.000298023 0.000298023 0.0063792 0.0063792 0.0151679 0.0151679 0.0235576 0.0235576 0.0500815 0.0500815 0.00647111 0.00647111 0.00281557 0.00281557 0.00018052 0.00018052 0.00205713 0.00205713 0.0173608 0.0173608 0.00523131 0.00523131 0.0760244 0.0760244 0.0115292 0.0115292 0.0210706 0.0210706 0.0772245 0.0772245 0.0385163 0.0385163 0.0173136 0.0173136 0.0213165 0.0213165 0.0612716 0.0612716 0.00629506 0.00629506 0.00255153 0.00255153 0.0545437 0.0545437 0.00787177 0.00787177 0.0114263 0.0114263 0.00541208 0.00541208 0.0543281 0.0543281 0.0521863 0.0521863 0.0244437 0.0244437 0.00972431 0.00972431 7.70761e-05 7.70761e-05 0.033391 0.033391 0.00791493 0.00791493 0.168205 0.168205 0.166439 0.166439 0.00965415 0.00965415 0.0253358 0.0253358 0.000443508 0.000443508 0.0203077 0.0203077 0.0018521 0.0018521 0.0282463 0.0282463 0.0392843 0.0392843 0.113733 0.113733 0.0112728 0.0112728 0.0259661 0.0259661 0.0630181 0.0630181 0.00130658 0.00130658 0.0189006 0.0189006 0.020001 0.020001 0.0256675 0.0256675 0.0160061 0.0160061 0.00015669 0.00015669 0.0029384 0.0029384 0.0348764 0.0348764 0.0202824 0.0202824 0.0185441 0.0185441 0.00577109 0.00577109 0.00505064 0.00505064 0.0826085 0.0826085 0.00500691 0.00500691 0.0277122 0.0277122 0.0361288 0.0361288 0.0251888 0.0251888 0.0256072 0.0256072 0.0528427 0.0528427 0.0413695 0.0413695 0.00540273 0.00540273 0.00368125 0.00368125 0.0596879 0.0596879 0.00823738 0.00823738 0.0375846 0.0375846 0.0359883 0.0359883 0.10776 0.10776 0.0114164 0.0114164 0.000393312 0.000393312 0.0077785 0.0077785 4.02478e-05 4.02478e-05 0.00462755 0.00462755 0.00183412 0.00183412 0.000541856 0.000541856 0.000310377 0.000310377 0.0806729 0.0806729 0.0286237 0.0286237 0.00263783 0.00263783 0.0769807 0.0769807 0.00246679 0.00246679 0.0250045 0.0250045 0.249428 0.249428 0.0179599 0.0179599 0.0152295 0.0152295 0.0249861 0.0249861 0.0133345 0.0133345 0.17258 0.17258 0.165658 0.165658 0.0120947 0.0120947 0.00551707 0.00551707 0.122623 0.122623 0.0123352 0.0123352 0.000842282 0.000842282 0.00292758 0.00292758 0.00665315 0.00665315 0.0334997 0.0334997 0.0615914 0.0615914 0.00090304 0.00090304 0.00217429 0.00217429 0.0113726 0.0113726 0.00172658 0.00172658 0.0790217 0.0790217 5.85056e-05 5.85056e-05 0.0128628 0.0128628 0.0152811 0.0152811 0.00419108 0.00419108 0.00959384 0.00959384 0.00632957 0.00632957 0.00725096 0.00725096 0.0266857 0.0266857 0.0154909 0.0154909 0.00640231 0.00640231 0.0113166 0.0113166 0.00444901 0.00444901 0.000159786 0.000159786 0.000720154 0.000720154 0.0158058 0.0158058 0.0193362 0.0193362 0.00125332 0.00125332 0.0112414 0.0112414 0.00315169 0.00315169 0.0376318 0.0376318 0.00882768 0.00882768 0.00322566 0.00322566 0.235026 0.235026 0.0803749 0.0803749 0.0186322 0.0186322 0.083618 0.083618 0.00291041 0.00291041 0.0439587 0.0439587 0.0775676 0.0775676 0.0753761 0.0753761 0.00147035 0.00147035 0.0621608 0.0621608 0.00595902 0.00595902 0.015055 0.015055 0.00302692 0.00302692 0.0208577 0.0208577 0.00354895 0.00354895 0.112441 0.112441 0.000160814 0.000160814 0.000196163 0.000196163 0.0940661 0.0940661 0.0180846 0.0180846 0.0008447 0.0008447 0.0247326 0.0247326 0.0364846 0.0364846 0.00185279 0.00185279 0.00785494 0.00785494 0.204175 0.204175 0.0212416 0.0212416 0.0167575 0.0167575 0.00169806 0.00169806 0.0296732 0.0296732 0.0201484 0.0201484 0.00897855 0.00897855 0.0282065 0.0282065 0.0578448 0.0578448 0.00854112 0.00854112 0.0228443 0.0228443 0.0239667 0.0239667 0.000730877 0.000730877 0.0631754 0.0631754 0.00647989 0.00647989 0.00938814 0.00938814 0.0112579 0.0112579 0.000211214 0.000211214 0.00404268 0.00404268 0.00230202 0.00230202 0.00798059 0.00798059 0.00145103 0.00145103 9.97904e-05 9.97904e-05 0.00376377 0.00376377 0.0440697 0.0440697 0.0145986 0.0145986 0.0699492 0.0699492 0.0143947 0.0143947 0.0640301 0.0640301 0.0118501 0.0118501 0.00513416 0.00513416 0.0119069 0.0119069 0.0948882 0.0948882 0.0152911 0.0152911 0.18656 0.18656 0.075396 0.075396 0.0284597 0.0284597 0.00804819 0.00804819 0.00923952 0.00923952 0.00112779 0.00112779 0.0269239 0.0269239 0.0336725 0.0336725 0.000129861 0.000129861 0.00986138 0.00986138 0.00603157 0.00603157 0.00585916 0.00585916 0.000257664 0.000257664 0.000236754 0.000236754 0.00563533 0.00563533 0.00876642 0.00876642 0.00157434 0.00157434 0.00148777 0.00148777 0.0353461 0.0353461 0.00319326 0.00319326 0.0219523 0.0219523 0.100452 0.100452 0.0285134 0.0285134 0.00449778 0.00449778 2.566e-05 2.566e-05 0.0402698 0.0402698 0.00568829 0.00568829 0.0676026 0.0676026 0.00617587 0.00617587 0.0168451 0.0168451 0.0337528 0.0337528 0.00356986 0.00356986 6.08428e-05 6.08428e-05 0.00355142 0.00355142 0.00178778 0.00178778 0.00110704 0.00110704 0.00252716 0.00252716 0.038584 0.038584 0.00654029 0.00654029 0.00137351 0.00137351 0.000651633 0.000651633 0.00152073 0.00152073 0.00195908 0.00195908 0.00141922 0.00141922 0.0062981 0.0062981 0.00392238 0.00392238 0.0397062 0.0397062 0.0655885 0.0655885 0.0106692 0.0106692 0.00212249 0.00212249 0.00267037 0.00267037 0.0294063 0.0294063 0.0303486 0.0303486 0.00488445 0.00488445 0.00877445 0.00877445 0.0310238 0.0310238 0.0398954 0.0398954 0.0141116 0.0141116 0.0236462 0.0236462 0.0123023 0.0123023 0.00434735 0.00434735 0.0116755 0.0116755 0.0369782 0.0369782 0.0285196 0.0285196 0.01291 0.01291 0.00119107 0.00119107 0.121861 0.121861 0.0246149 0.0246149 0.0999106 0.0999106 0.0719304 0.0719304 0.00360196 0.00360196 0.029304 0.029304 0.00235932 0.00235932 0.0112878 0.0112878 0.0017158 0.0017158 0.000172741 0.000172741 0.00890113 0.00890113 0.0406954 0.0406954 0.0237781 0.0237781 0.0599787 0.0599787 0.00546441 0.00546441 0.078566 0.078566 0.061065 0.061065 0.0157068 0.0157068 0.00677184 0.00677184 0.00611143 0.00611143 0.00130814 0.00130814 0.000996717 0.000996717 0.000615611 0.000615611 0.00998293 0.00998293 0.00166459 0.00166459 0.00657238 0.00657238 0.0170984 0.0170984 0.000623857 0.000623857 0.0173877 0.0173877 0.0402447 0.0402447 0.0381019 0.0381019 0.231358 0.231358 0.0189033 0.0189033 0.00148284 0.00148284 0.00157314 0.00157314 0.00663045 0.00663045 0.00799019 0.00799019 0.00736237 0.00736237 0.0755761 0.0755761 0.0130835 0.0130835 0.00185766 0.00185766 0.0045089 0.0045089 0.000417229 0.000417229 0.0192095 0.0192095 0.00451779 0.00451779 0.00973017 0.00973017 0.00283541 0.00283541 0.0106551 0.0106551 0.0631448 0.0631448 0.0256842 0.0256842 0.00606712 0.00606712 0.0513852 0.0513852 0.0209153 0.0209153 0.0151412 0.0151412 0.00945215 0.00945215 0.007667 0.007667 0.0142708 0.0142708 0.0154091 0.0154091 0.0062395 0.0062395 0.0014932 0.0014932 0.00237787 0.00237787 0.0258861 0.0258861 0.000280381 0.000280381 7.5231e-06 7.5231e-06 0.00696122 0.00696122 0.0352903 0.0352903 0.0843863 0.0843863 0.000341152 0.000341152 0.000664199 0.000664199 0.00372851 0.00372851 0.0221331 0.0221331 0.00994167 0.00994167 0.000135248 0.000135248 0.00272419 0.00272419 0.00422299 0.00422299 0.0210512 0.0210512 0.00732455 0.00732455 0.0451988 0.0451988 0.000554024 0.000554024 0.0269373 0.0269373 0.00929753 0.00929753 0.00667927 0.00667927 0.00636712 0.00636712 0.029793 0.029793 0.188998 0.188998 0.0319729 0.0319729 0.0717382 0.0717382 0.0112014 0.0112014 0.0146545 0.0146545 0.0100602 0.0100602 0.0134025 0.0134025 0.0174814 0.0174814 0.0064363 0.0064363 0.0215484 0.0215484 0.00646455 0.00646455 0.0295791 0.0295791 0.0328024 0.0328024 0.0257596 0.0257596 0.00158147 0.00158147 0.00314445 0.00314445 0.00124426 0.00124426 0.000529371 0.000529371 0.00174964 0.00174964 0.00541115 0.00541115 0.00323127 0.00323127 0.00998984 0.00998984 0.00240564 0.00240564 0.0306979 0.0306979 0.00622448 0.00622448 0.000525942 0.000525942 0.00254999 0.00254999 0.00278713 0.00278713 0.0095298 0.0095298 0.0663886 0.0663886 0.0309362 0.0309362 0.0335467 0.0335467 0.00550129 0.00550129 0.00463775 0.00463775 0.00212994 0.00212994 0.0293656 0.0293656 0.0299125 0.0299125 0.00546816 0.00546816 0.00193798 0.00193798 0.0356699 0.0356699 0.000113437 0.000113437 0.00998524 0.00998524 0.0183249 0.0183249 0.0473381 0.0473381 0.0356436 0.0356436 0.0115461 0.0115461 0.0188232 0.0188232 0.00186731 0.00186731 0.00324064 0.00324064 0.025115 0.025115 0.00773409 0.00773409 0.012679 0.012679 0.0130976 0.0130976 0.054823 0.054823 0.0182979 0.0182979 0.000813965 0.000813965 0.00613882 0.00613882 0.106205 0.106205 0.000196116 0.000196116 0.000111173 0.000111173 0 0 0.0623965 0.0623965 0.0209222 0.0209222 0.0987825 0.0987825 0.0578226 0.0578226 0.00288491 0.00288491 0.0503115 0.0503115 0.0181455 0.0181455 0.00562409 0.00562409 0.00882239 0.00882239 0.00864506 0.00864506 0.00164692 0.00164692 0.00367682 0.00367682 0.00352837 0.00352837 0.0178506 0.0178506 0.0628692 0.0628692 0.0813203 0.0813203 0.0251613 0.0251613 0.0345858 0.0345858 0.000508738 0.000508738 0.000387442 0.000387442 0.00293415 0.00293415 0.0186185 0.0186185 0.000459553 0.000459553 0.00278581 0.00278581 0.00282724 0.00282724 0.0537799 0.0537799 0.018334 0.018334 0.030474 0.030474 0.0441458 0.0441458 0.000312021 0.000312021 0 0 0.064265 0.064265 0.00270615 0.00270615 0.000145444 0.000145444 0.21244 0.21244 0.00738164 0.00738164 0.00738164 0.00738164 0.00217416 0.00217416 0.0128905 0.0128905 0.00479431 0.00479431 0.0403313 0.0403313 0.0522155 0.0522155 0.113858 0.113858 0.141321 0.141321 0.00229028 0.00229028 0.163208 0.163208 0.00375292 0.00375292 0.00290435 0.00290435 0.0403054 0.0403054 0.00362829 0.00362829 0.00202099 0.00202099 0.026994 0.026994 0.0232882 0.0232882 0.0256231 0.0256231 0.107608 0.107608 0.021075 0.021075 0.0505054 0.0505054 0.0284345 0.0284345 0.020074 0.020074 0.0225419 0.0225419 0.00892881 0.00892881 0.025898 0.025898 0.059116 0.059116 0.00913635 0.00913635 0.00464559 0.00464559 0.00701434 0.00701434 0.0848875 0.0848875 0.0267113 0.0267113 0.00656028 0.00656028 0.00390219 0.00390219 0.000384741 0.000384741 0.0127293 0.0127293 0.0303211 0.0303211 0.0206704 0.0206704 0.0117626 0.0117626 0.000610561 0.000610561 0.0219585 0.0219585 0.00582121 0.00582121 0.0112644 0.0112644 0.0400671 0.0400671 0.0150288 0.0150288 0.0376206 0.0376206 0.00331717 0.00331717 0.0118263 0.0118263 0.00158108 0.00158108 0.131465 0.131465 0.0143333 0.0143333 0.00290529 0.00290529 0.0840063 0.0840063 0.0490729 0.0490729 0.0398908 0.0398908 0.0378804 0.0378804 0.00931738 0.00931738 0.0158442 0.0158442 0.0329565 0.0329565 0.0036651 0.0036651 0.0142058 0.0142058 0.00142414 0.00142414 0.0253542 0.0253542 0.00334854 0.00334854 0.0158052 0.0158052 0.00835537 0.00835537 0.180669 0.180669 0.148064 0.148064 0.00886155 0.00886155 0.0151924 0.0151924 0.00128022 0.00128022 0.0164242 0.0164242 0.000911619 0.000911619 0.0045328 0.0045328 0.00235441 0.00235441 0.00126508 0.00126508 0.0245795 0.0245795 0.0888601 0.0888601 0.029165 0.029165 0.000845308 0.000845308 0.174383 0.174383 0.0330101 0.0330101 0.119066 0.119066 0.00458251 0.00458251 0.0047341 0.0047341 0.0423353 0.0423353 0.00995891 0.00995891 0.0121144 0.0121144 0.00137777 0.00137777 0.0614477 0.0614477 0.00916885 0.00916885 0.02382 0.02382 0.0372997 0.0372997 0.00131382 0.00131382 0.000525066 0.000525066 0.000252972 0.000252972 0.0163398 0.0163398 0.0306099 0.0306099 0.0400192 0.0400192 0.0114954 0.0114954 0.0115605 0.0115605 0.0209375 0.0209375 0.00294702 0.00294702 0.0122433 0.0122433 0.0901648 0.0901648 0.0127131 0.0127131 0.000770592 0.000770592 0.121594 0.121594 0.0192694 0.0192694 0.00172379 0.00172379 0.000423991 0.000423991 0.114766 0.114766 0.00613752 0.00613752 0.0558074 0.0558074 0.0668432 0.0668432 0.025163 0.025163 0.00965079 0.00965079 0.170948 0.170948 0.171251 0.171251 0.175514 0.175514 0.179982 0.179982 0.0205223 0.0205223 0.0165233 0.0165233 0.00899495 0.00899495 0.00825467 0.00825467 0.0172871 0.0172871 0.017735 0.017735 0.011169 0.011169 0.0208203 0.0208203 0.00113835 0.00113835 0.00841019 0.00841019 0.000611701 0.000611701 0.00318632 0.00318632 0.0352854 0.0352854 0.0199305 0.0199305 0.012664 0.012664 0.0451979 0.0451979 0.00414801 0.00414801 0.037292 0.037292 0.0117792 0.0117792 0.0146735 0.0146735 0.0277072 0.0277072 0.00306258 0.00306258 0.00401669 0.00401669 0.0473707 0.0473707 0.0373811 0.0373811 0.00183137 0.00183137 0.0142342 0.0142342 0.0216959 0.0216959 0.0319238 0.0319238 0.00134736 0.00134736 0.000890907 0.000890907 0.0102698 0.0102698 0.00143847 0.00143847 0.00224833 0.00224833 0.00265887 0.00265887 0.00918645 0.00918645 0.00821434 0.00821434 0.00450293 0.00450293 0.00133184 0.00133184 0.0142873 0.0142873 0.000532442 0.000532442 0.00599681 0.00599681 0.00102778 0.00102778 0.00358369 0.00358369 0.0182614 0.0182614 0.0108361 0.0108361 0.00524582 0.00524582 0.00577448 0.00577448 0.0198078 0.0198078 0.0263974 0.0263974 0.0154599 0.0154599 0.00599431 0.00599431 0.00395316 0.00395316 0.0249756 0.0249756 0.0425903 0.0425903 0.0386016 0.0386016 0.0372831 0.0372831 0.0175359 0.0175359 0.0220478 0.0220478 0 0 0.0100839 0.0100839 0.0293158 0.0293158 0.0281342 0.0281342 0.0020135 0.0020135 0.0195952 0.0195952 0.00142515 0.00142515 0.0128992 0.0128992 0.01547 0.01547 0.0116477 0.0116477 0.0995898 0.0995898 0.0492322 0.0492322 0.0039257 0.0039257 0.0241955 0.0241955 0.00541758 0.00541758 0.00177991 0.00177991 0.0226116 0.0226116 0.00244408 0.00244408 0.00401254 0.00401254 0.0184154 0.0184154 0.0863273 0.0863273 0.0105454 0.0105454 0.0349043 0.0349043 0.000619637 0.000619637 0.0239139 0.0239139 0.0225993 0.0225993 0.00236612 0.00236612 0.0424019 0.0424019 0.0193043 0.0193043 0.00777868 0.00777868 3.38276e-05 3.38276e-05 0.00265191 0.00265191 0.00364488 0.00364488 0.00550504 0.00550504 0.00376546 0.00376546 0.0041938 0.0041938 4.19232e-05 4.19232e-05 0.0312929 0.0312929 0.0305254 0.0305254 0.000301286 0.000301286 0.0207068 0.0207068 0.00276093 0.00276093 0.0198721 0.0198721 0.0198702 0.0198702 0.0153884 0.0153884 0.0107783 0.0107783 0.0240751 0.0240751 0.0130092 0.0130092 0.0162335 0.0162335 0.00584768 0.00584768 0.0820115 0.0820115 0.00369878 0.00369878 0.000384114 0.000384114 0.0684098 0.0684098 0.0843774 0.0843774 0.0101202 0.0101202 0.00405236 0.00405236 0.00170111 0.00170111 0.00197766 0.00197766 0.0109329 0.0109329 0.000350275 0.000350275 0.000334966 0.000334966 9.92699e-05 9.92699e-05 0.0126304 0.0126304 0.017662 0.017662 0.00253062 0.00253062 0.0167537 0.0167537 0.000170267 0.000170267 0.0166984 0.0166984 0.0437583 0.0437583 0.25892 0.25892 0.0769017 0.0769017 0.0469378 0.0469378 0.00298143 0.00298143 0.0167212 0.0167212 0.0778163 0.0778163 0.0229306 0.0229306 0.0177982 0.0177982 0.000926682 0.000926682 0.0717334 0.0717334 0.00156142 0.00156142 0.0306485 0.0306485 0.0458644 0.0458644 0.00039731 0.00039731 0.000508527 0.000508527 0 0 0.00889585 0.00889585 0.00451362 0.00451362 0.00488559 0.00488559 0.000302142 0.0003021