<?xml version="1.0"?>
<VTKFile type="PolyData" version="0.1" byte_order="LittleEndian" >
<PolyData>
<Piece NumberOfPoints="5322" NumberOfVerts="0" NumberOfLines="2661" NumberOfStrips="0" NumberOfPolys="0">
<Points>
<DataArray type="Float32" NumberOfComponents="3" format="ascii">
0.043249 0.172889 0.452155 0.0662533 0.173812 0.459487 0.043249 0.172889 0.452155 0.0603994 0.172597 0.464781 0.0962286 0.1972 0.454168 0.0980497 0.189023 0.450517 0.0962286 0.1972 0.454168 0.0980497 0.189023 0.450517 0.132101 0.242339 0.453372 0.143655 0.2485 0.458683 0.132101 0.242339 0.453372 0.143655 0.2485 0.458683 0.132101 0.242339 0.453372 0.128431 0.2502 0.463941 0.10196 0.14886 0.459106 0.100573 0.16546 0.467973 0.10196 0.14886 0.459106 0.10908 0.16005 0.471186 0.10196 0.14886 0.459106 0.113109 0.140751 0.454823 0.114194 0.178471 0.459323 0.113274 0.182363 0.450114 0.114194 0.178471 0.459323 0.110996 0.193261 0.456392 0.114194 0.178471 0.459323 0.107242 0.184102 0.458547 0.0760379 0.215121 0.453264 0.0935055 0.224843 0.451464 0.00944667 0.170873 0.452521 0.0119798 0.180875 0.460664 0.00944667 0.170873 0.452521 -0.000200016 0.17883 0.446896 0.0609239 0.209641 0.452383 0.0557915 0.210771 0.45234 0.0609239 0.209641 0.452383 0.0557915 0.210771 0.45234 0.0609239 0.209641 0.452383 0.0557915 0.210771 0.45234 0.0205704 0.124771 0.455678 0.0374787 0.12899 0.461522 0.010231 0.201268 0.452855 0.0144965 0.222438 0.450921 0.010231 0.201268 0.452855 0.0290603 0.197624 0.459888 0.010231 0.201268 0.452855 -0.000200004 0.193144 0.456555 0.010231 0.201268 0.452855 -0.000200006 0.210101 0.451557 0.118204 0.226782 0.45125 0.118841 0.218894 0.455349 0.118204 0.226782 0.45125 0.118841 0.218894 0.455349 0.050007 0.195607 0.455625 0.056524 0.20385 0.451502 0.050007 0.195607 0.455625 0.056524 0.20385 0.451502 0.050007 0.195607 0.455625 0.0587172 0.183334 0.450006 0.0557915 0.210771 0.45234 0.059396 0.232999 0.450739 0.0557915 0.210771 0.45234 0.0760379 0.215121 0.453264 0.0635955 0.14938 0.452511 0.072551 0.151992 0.457312 0.0635955 0.14938 0.452511 0.072551 0.151992 0.457312 0.0635955 0.14938 0.452511 0.0500997 0.155927 0.451277 0.13437 0.220126 0.451402 0.118204 0.226782 0.45125 0.13437 0.220126 0.451402 0.118841 0.218894 0.455349 0.13437 0.220126 0.451402 0.143368 0.215682 0.458426 0.13437 0.220126 0.451402 0.147826 0.223513 0.460146 0.13437 0.220126 0.451402 0.139621 0.210715 0.452596 0.13437 0.220126 0.451402 0.139621 0.210715 0.452596 0.137863 0.149963 0.45635 0.14797 0.160886 0.462036 0.137863 0.149963 0.45635 0.146551 0.152612 0.450704 0.137863 0.149963 0.45635 0.140914 0.159395 0.454468 0.137863 0.149963 0.45635 0.140914 0.159395 0.454468 0.137863 0.149963 0.45635 0.140914 0.159395 0.454468 0.137863 0.149963 0.45635 0.14642 0.155873 0.458554 0.137863 0.149963 0.45635 0.152447 0.152007 0.454593 0.0783696 0.204715 0.45074 0.0760379 0.215121 0.453264 0.0015 0.134763 0.452301 -0.000200002 0.121384 0.451134 0.0015 0.134763 0.452301 -0.000200002 0.13413 0.438886 0.148547 0.241751 0.455076 0.1602 0.240319 0.462244 0.106789 0.216868 0.451902 0.118841 0.218894 0.455349 0.0698514 0.236969 0.451988 0.0700496 0.240982 0.458017 0.110611 0.195288 0.461953 0.0962286 0.1972 0.454168 0.110611 0.195288 0.461953 0.124302 0.191128 0.457026 0.110611 0.195288 0.461953 0.123157 0.189619 0.468903 0.110611 0.195288 0.461953 0.11574 0.202395 0.461426 0.110611 0.195288 0.461953 0.119795 0.200966 0.456517 0.0684223 0.186485 0.456047 0.0663308 0.184205 0.450771 0.0684223 0.186485 0.456047 0.0663308 0.184205 0.450771 0.0995802 0.166424 0.459892 0.101674 0.156752 0.451343 0.0995802 0.166424 0.459892 0.10967 0.185646 0.46588 0.0684738 0.170078 0.453349 0.064664 0.16662 0.450608 0.0684738 0.170078 0.453349 0.064664 0.16662 0.450608 0.0684738 0.170078 0.453349 0.0684223 0.186485 0.456047 0.0350984 0.230712 0.454432 0.0264901 0.24025 0.464435 0.107242 0.184102 0.458547 0.0980497 0.189023 0.450517 0.107242 0.184102 0.458547 0.124302 0.191128 0.457026 0.107242 0.184102 0.458547 0.119795 0.200966 0.456517 0.0247031 0.146616 0.455629 0.0347881 0.156064 0.464022 0.0247031 0.146616 0.455629 0.0255553 0.151027 0.463345 0.0247031 0.146616 0.455629 0.0255553 0.151027 0.463345 0.0247031 0.146616 0.455629 0.0321352 0.122899 0.460448 0.150023 0.209902 0.458772 0.154957 0.213184 0.471574 0.150023 0.209902 0.458772 0.139621 0.210715 0.452596 0.150023 0.209902 0.458772 0.1602 0.217026 0.464604 0.152447 0.152007 0.454593 0.1602 0.15571 0.443959 0.0816868 0.143843 0.464798 0.072551 0.151992 0.457312 0.0816868 0.143843 0.464798 0.072551 0.151992 0.457312 0.0816868 0.143843 0.464798 0.0825047 0.152188 0.474216 0.0816868 0.143843 0.464798 0.0926763 0.126319 0.466709 0.0816868 0.143843 0.464798 0.0842082 0.139609 0.454325 0.0816868 0.143843 0.464798 0.0915858 0.146284 0.468237 0.0816868 0.143843 0.464798 0.0847645 0.134832 0.463917 0.0491603 0.218199 0.456988 0.0601162 0.236522 0.453984 0.0491603 0.218199 0.456988 0.059396 0.232999 0.450739 0.0809677 0.148391 0.4517 0.0816868 0.143843 0.464798 0.0809677 0.148391 0.4517 0.0635955 0.14938 0.452511 0.0809677 0.148391 0.4517 0.086282 0.159452 0.472124 0.0809677 0.148391 0.4517 0.072551 0.151992 0.457312 0.0809677 0.148391 0.4517 0.072551 0.151992 0.457312 0.0809677 0.148391 0.4517 0.0778906 0.156173 0.450706 0.0809677 0.148391 0.4517 0.0778906 0.156173 0.450706 0.0955106 0.235348 0.45645 0.0864894 0.236494 0.450727 0.0469775 0.209855 0.465767 0.0423304 0.216093 0.467882 0.0469775 0.209855 0.465767 0.0423304 0.216093 0.467882 0.0469775 0.209855 0.465767 0.050213 0.215367 0.464799 0.0469775 0.209855 0.465767 0.0470853 0.217215 0.453139 0.0469775 0.209855 0.465767 0.0718606 0.206818 0.474381 0.0469775 0.209855 0.465767 0.056524 0.20385 0.451502 0.0469775 0.209855 0.465767 0.0684667 0.209021 0.467894 0.0245596 0.228628 0.455767 0.0401562 0.229473 0.460852 0.0245596 0.228628 0.455767 0.0349279 0.2232 0.467836 0.154049 0.198307 0.451472 0.139621 0.210715 0.452596 0.0998063 0.222139 0.459285 0.0955106 0.235348 0.45645 0.0998063 0.222139 0.459285 0.106789 0.216868 0.451902 0.0870703 0.123299 0.453673 0.0935035 0.122998 0.456189 0.0870703 0.123299 0.453673 0.112605 0.123297 0.456486 0.032007 0.209869 0.455461 0.0469775 0.209855 0.465767 0.032007 0.209869 0.455461 0.0293693 0.19622 0.453146 0.032007 0.209869 0.455461 0.0351003 0.212711 0.45073 0.032007 0.209869 0.455461 0.0351003 0.212711 0.45073 0.032007 0.209869 0.455461 0.0331541 0.216502 0.460579 0.032007 0.209869 0.455461 0.0331541 0.216502 0.460579 0.032007 0.209869 0.455461 0.0245596 0.228628 0.455767 0.153329 0.137373 0.458571 0.1602 0.146452 0.466102 0.153329 0.137373 0.458571 0.1602 0.128783 0.466656 0.0448059 0.138984 0.463213 0.031882 0.152106 0.47097 0.0448059 0.138984 0.463213 0.0635305 0.140715 0.458721 0.0213841 0.192021 0.452093 0.010231 0.201268 0.452855 0.0213841 0.192021 0.452093 0.0137381 0.186629 0.452763 0.0213841 0.192021 0.452093 0.0137381 0.186629 0.452763 0.0213841 0.192021 0.452093 0.0363142 0.191937 0.450723 0.0213841 0.192021 0.452093 0.0293693 0.19622 0.453146 0.0213841 0.192021 0.452093 0.0293693 0.19622 0.453146 0.0561526 0.130432 0.45365 0.0533041 0.154729 0.456592 0.148029 0.13735 0.45803 0.153329 0.137373 0.458571 0.148029 0.13735 0.45803 0.140914 0.159395 0.454468 0.102285 0.20668 0.461427 0.118841 0.218894 0.455349 0.102285 0.20668 0.461427 0.119651 0.209918 0.466338 0.102285 0.20668 0.461427 0.11537 0.204371 0.470791 0.102285 0.20668 0.461427 0.11574 0.202395 0.461426 0.00725539 0.134556 0.452741 -0.000200006 0.125546 0.459808 0.00933333 0.239501 0.45464 0.0123556 0.24081 0.463851 0.00933333 0.239501 0.45464 0.0123556 0.24081 0.463851 0.00933333 0.239501 0.45464 -0.000200008 0.241309 0.444955 0.0469618 0.168244 0.460564 0.0500997 0.155927 0.451277 0.0469618 0.168244 0.460564 0.0349151 0.182687 0.468237 0.0469618 0.168244 0.460564 0.0603994 0.172597 0.464781 0.0961431 0.234359 0.463564 0.0998063 0.222139 0.459285 0.0961431 0.234359 0.463564 0.10941 0.242687 0.467817 0.102116 0.162232 0.450978 0.101674 0.156752 0.451343 0.039499 0.145755 0.455522 0.0436291 0.150806 0.462 0.039499 0.145755 0.455522 0.031882 0.152106 0.47097 0.039499 0.145755 0.455522 0.0500997 0.155927 0.451277 0.0470853 0.217215 0.453139 0.0491603 0.218199 0.456988 0.0470853 0.217215 0.453139 0.0557915 0.210771 0.45234 0.0924273 0.180946 0.46384 0.107242 0.184102 0.458547 0.0924273 0.180946 0.46384 0.107242 0.184102 0.458547 0.110517 0.221734 0.460684 0.0998063 0.222139 0.459285 0.110517 0.221734 0.460684 0.106789 0.216868 0.451902 0.110517 0.221734 0.460684 0.125841 0.216362 0.468652 0.110517 0.221734 0.460684 0.121232 0.224951 0.461802 0.110517 0.221734 0.460684 0.116713 0.238805 0.465393 0.110517 0.221734 0.460684 0.118841 0.218894 0.455349 0.110517 0.221734 0.460684 0.118841 0.218894 0.455349 0.0439471 0.191893 0.451777 0.0293693 0.19622 0.453146 0.0439471 0.191893 0.451777 0.0557915 0.210771 0.45234 0.140804 0.206596 0.466126 0.146983 0.213096 0.468806 0.119795 0.200966 0.456517 0.116827 0.212134 0.458638 0.119795 0.200966 0.456517 0.118841 0.218894 0.455349 0.0962757 0.134341 0.45743 0.0935035 0.122998 0.456189 0.0962757 0.134341 0.45743 0.113109 0.140751 0.454823 0.0246628 0.139216 0.460017 0.0247031 0.146616 0.455629 0.0246628 0.139216 0.460017 0.0205704 0.124771 0.455678 0.0246628 0.139216 0.460017 0.0436291 0.150806 0.462 0.0246628 0.139216 0.460017 0.0255553 0.151027 0.463345 0.0246628 0.139216 0.460017 0.0356129 0.133173 0.458416 0.0213379 0.174774 0.462647 0.0119798 0.180875 0.460664 0.0213379 0.174774 0.462647 0.0263676 0.180424 0.465368 0.0213379 0.174774 0.462647 0.0263676 0.180424 0.465368 0.0213379 0.174774 0.462647 0.0213841 0.192021 0.452093 0.0213379 0.174774 0.462647 0.0369353 0.171867 0.464939 0.0230207 0.143095 0.451816 0.0247031 0.146616 0.455629 0.0230207 0.143095 0.451816 0.0247031 0.146616 0.455629 0.0230207 0.143095 0.451816 0.00991249 0.156709 0.453654 0.0815879 0.169148 0.451395 0.0684738 0.170078 0.453349 0.0815879 0.169148 0.451395 0.064664 0.16662 0.450608 0.0815879 0.16914
[...]
<PointData Scalars="F_N">
<DataArray type="Float32" Name="F_N" format="ascii">
7.83973e-05 7.83973e-05 0.00265302 0.00265302 0.0151175 0.0151175 0.0286305 0.0286305 0.0011319 0.0011319 0.000220319 0.000220319 0.000238939 0.000238939 0.00192296 0.00192296 0.00115123 0.00115123 0.00712307 0.00712307 7.74983e-05 7.74983e-05 0.00189557 0.00189557 0.00118327 0.00118327 0.000359664 0.000359664 0.0088008 0.0088008 0.000295085 0.000295085 0.0149774 0.0149774 0.00187947 0.00187947 0.000341895 0.000341895 0.00161793 0.00161793 0.00219807 0.00219807 0.000798933 0.000798933 0.000420335 0.000420335 7.29722e-05 7.29722e-05 0.027974 0.027974 0.00297076 0.00297076 0.0122754 0.0122754 0.0309203 0.0309203 0.00261691 0.00261691 0.00224847 0.00224847 0.0069585 0.0069585 0.00697732 0.00697732 0.0452046 0.0452046 0.00127822 0.00127822 0.00880873 0.00880873 0.00166074 0.00166074 0.00208974 0.00208974 0.00216772 0.00216772 0.00686097 0.00686097 0.0203489 0.0203489 1.74361e-05 1.74361e-05 0.0016618 0.0016618 0.00926609 0.00926609 0.00872984 0.00872984 0.00321401 0.00321401 0.00722151 0.00722151 0.000725165 0.000725165 0.0144161 0.0144161 0.000661737 0.000661737 0.000915777 0.000915777 0 0 0.00461294 0.00461294 0.00371029 0.00371029 0.00899891 0.00899891 0.00183262 0.00183262 0.00880896 0.00880896 0.000214966 0.000214966 0.00434569 0.00434569 0.0219334 0.0219334 0.00205982 0.00205982 0.00804356 0.00804356 0.000674139 0.000674139 0.00496185 0.00496185 0.0250468 0.0250468 0.0149574 0.0149574 0.000626475 0.000626475 0.000588172 0.000588172 0.00503639 0.00503639 0.002107 0.002107 0.000324248 0.000324248 0.0101295 0.0101295 0.00960748 0.00960748 0.000301011 0.000301011 0.000341737 0.000341737 0.00355704 0.00355704 0 0 0 0 0.00619919 0.00619919 0.00619919 0.00619919 0.00332422 0.00332422 0.000577768 0.000577768 0.000591985 0.000591985 0.001194 0.001194 0.00286047 0.00286047 0.00266929 0.00266929 0.00616033 0.00616033 0.00191394 0.00191394 0.0211981 0.0211981 3.71982e-06 3.71982e-06 0.00969906 0.00969906 0.00710139 0.00710139 0.022882 0.022882 0.0225646 0.0225646 0.00145333 0.00145333 0.000272831 0.000272831 0.0069235 0.0069235 0.00139415 0.00139415 0.00575165 0.00575165 0.000754487 0.000754487 0.00226915 0.00226915 0.0112378 0.0112378 0.00140072 0.00140072 4.84744e-05 4.84744e-05 1.55358e-05 1.55358e-05 0.0112076 0.0112076 0.00274844 0.00274844 0.00654796 0.00654796 0.000531087 0.000531087 0.000420371 0.000420371 0.00542037 0.00542037 0.0290915 0.0290915 0.0188943 0.0188943 0.00938572 0.00938572 0.0178405 0.0178405 0.0021452 0.0021452 0 0 0 0 0.000359679 0.000359679 0.00631032 0.00631032 0.00287743 0.00287743 0.00271501 0.00271501 0.00382942 0.00382942 0.000492912 0.000492912 0.00363106 0.00363106 0.00465325 0.00465325 0.000479967 0.000479967 0.000242755 0.000242755 0.000336867 0.000336867 0.00111739 0.00111739 0.000157613 0.000157613 0.00166486 0.00166486 0.000133328 0.000133328 0.000275408 0.000275408 0.00159129 0.00159129 0.00429532 0.00429532 0.00439187 0.00439187 0.000989659 0.000989659 0.00254556 0.00254556 0.000376941 0.000376941 0.0106895 0.0106895 0.000249166 0.000249166 0.0169674 0.0169674 0.00104076 0.00104076 0.00150151 0.00150151 0.00341797 0.00341797 0.00175127 0.00175127 0.00334319 0.00334319 0.00635529 0.00635529 0.00125113 0.00125113 0.00145571 0.00145571 0.000110282 0.000110282 0.00040641 0.00040641 0.00740874 0.00740874 0.00162348 0.00162348 0.00536727 0.00536727 0.0177846 0.0177846 0.000490243 0.000490243 0.000207998 0.000207998 0.0132886 0.0132886 0.00438211 0.00438211 0.00222721 0.00222721 0.003015 0.003015 0.0081807 0.0081807 0.00842385 0.00842385 0.00270586 0.00270586 0.0049561 0.0049561 0.00749748 0.00749748 0.00304598 0.00304598 0.00651097 0.00651097 0.0181741 0.0181741 0.0234703 0.0234703 0.0011712 0.0011712 0.00123528 0.00123528 0.00696997 0.00696997 0.0308644 0.0308644 0.00262561 0.00262561 0.0107587 0.0107587 0.0043275 0.0043275 0.0051929 0.0051929 0.0109183 0.0109183 0.00113373 0.00113373 0.00937216 0.00937216 0.000178546 0.000178546 0.000410133 0.000410133 0.00087392 0.00087392 0.00232114 0.00232114 0.000787701 0.000787701 0.00014166 0.00014166 0.00134079 0.00134079 0.00184654 0.00184654 0.00123708 0.00123708 0.00882903 0.00882903 0.00163685 0.00163685 0.000195921 0.000195921 0.000324561 0.000324561 0.000367279 0.000367279 0.000311832 0.000311832 5.54954e-05 5.54954e-05 0.00193931 0.00193931 0.00468601 0.00468601 0.000152658 0.000152658 0.000981602 0.000981602 0.00281343 0.00281343 0.00132848 0.00132848 0.000204496 0.000204496 3.96218e-05 3.96218e-05 0.0032714 0.0032714 0.0144917 0.0144917 0.00651805 0.00651805 0.00107606 0.00107606 0.00761311 0.00761311 0.0374414 0.0374414 0.0374414 0.0374414 0.00467823 0.00467823 0.00164711 0.00164711 0.00108769 0.00108769 0.000188496 0.000188496 0.000137405 0.000137405 0.00157955 0.00157955 0.000427439 0.000427439 0.000118081 0.000118081 0.00306172 0.00306172 0.0038698 0.0038698 0.00143176 0.00143176 7.26951e-06 7.26951e-06 0.00128144 0.00128144 0.00531604 0.00531604 0.00584361 0.00584361 0.000187594 0.000187594 0.0012177 0.0012177 0.000805833 0.000805833 0.0123777 0.0123777 0.00137211 0.00137211 0.00576793 0.00576793 0.000409105 0.000409105 0.00193797 0.00193797 0.002074 0.002074 0.00125372 0.00125372 0.00124265 0.00124265 0.000145382 0.000145382 0.0165292 0.0165292 0.00703829 0.00703829 0.00805351 0.00805351 0.00146672 0.00146672 0.012288 0.012288 0.00242229 0.00242229 0.000793237 0.000793237 0.012685 0.012685 0.00162206 0.00162206 0.0182583 0.0182583 0.000409414 0.000409414 0.00291157 0.00291157 0.00514559 0.00514559 0.00519189 0.00519189 0.00131054 0.00131054 5.52057e-05 5.52057e-05 0.00686973 0.00686973 0.000227794 0.000227794 0.0111311 0.0111311 0.000163936 0.000163936 0.0068741 0.0068741 0.00100075 0.00100075 0.000207913 0.000207913 0.00011496 0.00011496 0.00329698 0.00329698 0.00686559 0.00686559 0.000127716 0.000127716 0.0020338 0.0020338 0.00231014 0.00231014 0.000169649 0.000169649 0.00315912 0.00315912 0.00757673 0.00757673 0.0307049 0.0307049 0.0111157 0.0111157 0.0110653 0.0110653 0.00271707 0.00271707 0.000668325 0.000668325 0.00576684 0.00576684 0.00104837 0.00104837 0 0 0.00839751 0.00839751 0.00129111 0.00129111 0.00102998 0.00102998 1.6071e-05 1.6071e-05 0.00140537 0.00140537 0.000790695 0.000790695 0.000113096 0.000113096 0.000113761 0.000113761 9.33308e-05 9.33308e-05 0.000150963 0.000150963 0.0055992 0.0055992 0.0182612 0.0182612 0.000307615 0.000307615 0.00726517 0.00726517 0.000258462 0.000258462 0.000216678 0.000216678 0.00553708 0.00553708 0.000129675 0.000129675 0.00179603 0.00179603 0.000720178 0.000720178 0.00054249 0.00054249 0.00510135 0.00510135 0.00565245 0.00565245 0.000656561 0.000656561 0.000111885 0.000111885 0.0010496 0.0010496 0.00336757 0.00336757 0.00382492 0.00382492 0.00422721 0.00422721 0.00176331 0.00176331 0.00098195 0.00098195 0.0146381 0.0146381 0.000113137 0.000113137 0.00462242 0.00462242 0.000526077 0.000526077 0.00452428 0.00452428 0.00440527 0.00440527 0.00638626 0.00638626 0.00129376 0.00129376 0.00152604 0.00152604 0.00390409 0.00390409 0.00030134 0.00030134 0.00329643 0.00329643 0.000838705 0.000838705 0.00230467 0.00230467 0.00669471 0.00669471 0.0027638 0.0027638 0.000396634 0.000396634 0.00096118 0.00096118 2.20634e-05 2.20634e-05 0.00125348 0.00125348 0.00590433 0.00590433 0.000980665 0.000980665 0.00235337 0.00235337 0.00203334 0.00203334 0.000622502 0.000622502 0.00063559 0.00063559 0.00122939 0.00122939 0.00811759 0.00811759 0.00110782 0.00110782 0.0141268 0.0141268 0.00127898 0.00127898 0.00231352 0.00231352 0.00178011 0.00178011 0.0040025 0.0040025 0.00127887 0.00127887 5.87021e-05 5.87021e-05 5.87021e-05 5.87021e-05 0.000112657 0.000112657 7.44903e-05 7.44903e-05 0.00286074 0.00286074 0.00621197 0.00621197 0.00221347 0.00221347 0.00433163 0.00433163 0.00162666 0.00162666 0.01164 0.01164 0.0106085 0.0106085 0.00272482 0.00272482 0.00432357 0.00432357 0.00426768 0.00426768 0.00481635 0.00481635 0.00331359 0.00331359 0.000578209 0.000578209 4.49538e-05 4.49538e-05 0.000902907 0.000902907 0.0194676 0.0194676 0.00491423 0.00491423 0.00209867 0.00209867 0.00120781 0.00120781 0.000679541 0.000679541 0.00312674 0.00312674 0.0063298 0.0063298 0.00496551 0.00496551 0.00299228 0.00299228 0.000113462 0.000113462 0.00284828 0.00284828 0.00545916 0.00545916 0.00671273 0.00671273 0.00447834 0.00447834 0.000251401 0.000251401 0.00314839 0.00314839 0.0109392 0.0109392 0.0192014 0.0192014 0.00781573 0.00781573 0.00078104 0.00078104 0.00049572 0.00049572 0.000936173 0.000936173 0.000540598 0.000540598 0.00219637 0.00219637 0.00210404 0.00210404 0.000111139 0.000111139 0.00209455 0.00209455 0.00209789 0.00209789 0.000274374 0.000274374 0.00015058 0.00015058 0.0105747 0.0105747 0.0014409 0.0014409 0.00238307 0.00238307 0.00803701 0.00803701 0.00646333 0.00646333 0.000666941 0.000666941 0.0320864 0.0320864 0.0285243 0.0285243 0.0277437 0.0277437 6.45438e-05 6.45438e-05 0.006705 0.006705 0.0054368 0.0054368 0.000213461 0.000213461 0.00149011 0.00149011 2.55216e-05 2.55216e-05 0.00206273 0.00206273 0.0041915 0.0041915 0.0016516 0.0016516 0.000701266 0.000701266 0.00144799 0.00144799 2.58695e-05 2.58695e-05 0.00749847 0.00749847 0.000540071 0.000540071 0.00114298 0.00114298 1.36186e-07 1.36186e-07 0.000378983 0.000378983 0.010193 0.010193 0.00794066 0.00794066 0.000598372 0.000598372 0.00135469 0.00135469 0.000104963 0.000104963 0.0275534 0.0275534 0.00248345 0.00248345 0.000263917 0.000263917 0.00385158 0.00385158 0.000193308 0.000193308 0.000144392 0.000144392 0.000848177 0.000848177 0.00691322 0.00691322 6.95263e-05 6.95263e-05 8.81784e-06 8.81784e-06 0.000446607 0.000446607 0.000262062 0.000262062 0.000696979 0.000696979 0.000326641 0.000326641 0.0114699 0.0114699 0.00336247 0.00336247 0.00023863 0.00023863 0.00985381 0.00985381 0.0171716 0.0171716 0.000357154 0.000357154 0.0177631 0.0177631 0.0104543 0.0104543 0.0152661 0.0152661 0.00168473 0.00168473 0.00568604 0.00568604 0.00305563 0.00305563 0.00229066 0.00229066 0.000184122 0.000184122 0.00409157 0.00409157 0.00532614 0.00532614 0.00163622 0.00163622 0.00632857 0.00632857 0.00558149 0.00558149 0.000932437 0.000932437 0.0274188 0.0274188 0.00834169 0.00834169 6.97234e-05 6.97234e-05 0.00765953 0.00765953 0.000303581 0.000303581 0.000303581 0.000303581 4.8471e-05 4.8471e-05 0.049805 0.049805 0.0496611 0.0496611 0.0308915 0.0308915 0.0284683 0.0284683 0.00662377 0.00662377 0.00362023 0.00362023 0.00233659 0.00233659 0.00137546 0.00137546 0.00443208 0.00443208 0.00026588 0.00026588 0.00385546 0.00385546 0.000359419 0.000359419 0.0017673 0.0017673 0.00167981 0.00167981 0.000345329 0.000345329 0.00443906 0.00443906 0.00107804 0.00107804 0.000649297 0.000649297 0.00381042 0.00381042 0.0028458 0.0028458 0.0147281 0.0147281 0.00435535 0.00435535 0.000261502 0.000261502 0.000293658 0.000293658 0.00429623 0.00429623 0.000799558 0.000799558 0.00301721 0.00301721 0.00210474 0.00210474 0.00266717 0.00266717 0.00401746 0.00401746 0.0068664 0.0068664 0.00359191 0.00359191 0.000902913 0.000902913 0.00282606 0.00282606 0.00105768 0.00105768 0.000459924 0.000459924 0.0145956 0.0145956 0.00625694 0.00625694 0.000273333 0.000273333 0.0174998 0.0174998 0.000169966 0.000169966 8.71377e-05 8.71377e-05 0.00331494 0.00331494 0.00183313 0.00183313 0.000762393 0.000762393 0.000762393 0.000762393 0.0033981 0.0033981 0.00313187 0.00313187 0.00121555 0.00121555 0.002083 0.002083 0.00303293 0.00303293 0.00059413 0.00059413 0.0229576 0.0229576 0.0168953 0.0168953 0.00238299 0.00238299 0.00483627 0.00483627 0.00327172 0.00327172 0.0100827 0.0100827 0.0122354 0.0122354 0.000730056 0.000730056 0.00810698 0.00810698 0.004571 0.004571 0.000670313 0.000670313 0.00421168 0.00421168 0.00120596 0.00120596 0.00117058 0.00117058 0.000724737 0.000724737 0.00164037 0.00164037 0.000523563 0.000523563 0.000162364 0.000162364 0.000123469 0.000123469 0.00197591 0.00197591 0.00221029 0.00221029 0.00388242 0.00388242 0.00454083 0.00454083 0.000185598 0.000185598 0.00187638 0.00187638 0.015437 0.015437 0.00128361 0.00128361 0.000508696 0.000508696 0.000434154 0.000434154 0.00128006 0.00128006 0.00161761 0.00161761 0.00551617 0.00551617 0.00975217 0.00975217 0.000224891 0.000224891 2.60063e-05 2.60063e-05 0.000264677 0.000264677 0.000427303 0.000427303 6.67305e-05 6.67305e-05 0.0101768 0.0101768 0.0107398 0.0107398 0.000903187 0.000903187 0.00316982 0.00316982 0.0018518 0.0018518 0.000372593 0.000372593 0.00242515 0.00242515 0.000115161 0.000115161 0.00185135 0.00185135 0.000214675 0.000214675 0.0191478 0.0191478 0.00193769 0.00193769 0.00530441 0.00530441 0.000152175 0.000152175 0.00302264 0.00302264 0.00288437 0.00288437 0.000203492 0.000203492 0.00440883 0.00440883 7.02914e-05 7.02914e-05 0.000596896 0.000596896 0.000393381 0.000393381 0.00100803 0.00100803 0.00664489 0.00664489 0.000842905 0.000842905 0.000255925 0.000255925 0.00119962 0.00119962 0.0056417 0.0056417 0.000238299 0.000238299 0.000831729 0.000831729 0.000829566 0.000829566 0.000811619 0.000811619 0.0151534 0.0151534 0.00230677 0.00230677 0.000775387 0.000775387 0.0198044 0.0198044 0.00516567 0.00516567 0.00879129 0.00879129 0.0043208 0.0043208 0.0126735 0.0126735 0.0250936 0.0250936 0.0115286 0.0115286 0.00410641 0.00410641 0.0120432 0.0120432 0.00109467 0.00109467 0.000437867 0.000437867 0.00119868 0.00119868 0.00174676 0.00174676 0.00617081 0.00617081 0.00403222 0.00403222 0.000109127 0.000109127 0.00470843 0.00470843 0.000346525 0.000346525 0.000134486 0.000134486 0.00482738 0.00482738 0.00527907 0.00527907 3.58997e-06 3.58997e-06 0.0034396 0.0034396 0.000229516 0.000229516 0 0 0.000864778 0.000864778 9.41645e-05 9.41645e-05 0.000177975 0.000177975 0.000284144 0.000284144 0.00410529 0.00410529 5.67306e-05 5.67306e-05 0.00258226 0.00258226 0.000662018 0.000662018 0.000680701 0.000680701 0.00149201 0.00149201 0.000418583 0.000418583 0.0136385 0.0136385 0.00774374 0.00774374 0.00259761 0.00259761 0.00257532 0.00257532 0.00419621 0.00419621 0.0010929 0.0010929 0.000560842 0.000560842 0.000370721 0.000370721 0.0270463 0.0270463 0.00968025 0.00968025 0.00529958 0.00529958 0.00921731 0.00921731 0.00763826 0.00763826 0.00449587 0.00449587 0.00205633 0.00205633 4.44066e-05 4.44066e-05 0.000840969 0.000840969 0.00671798 0.00671798 0.000646362 0.000646362 0.00111434 0.00111434 0.0015042 0.0015042 0.00304467 0.00304467 0.00115019 0.00115019 0.00197237 0.00197237 0.00070919 0.00070919 0.00601563 0.00601563 0.00144727 0.00144727 0.0127611 0.0127611 0.0158582 0.0158582 0.00974547 0.00974547 4.49342e-05 4.49342e-05 0.000760075 0.000760075 0.00475589 0.00475589 0.00624141 0.00624141 0.00191565 0.00191565 0.00346377 0.00346377 0.00721263 0.00721263 0.0102762 0.0102762 0.00653522 0.00653522 0.0116872 0.0116872 0.00117692 0.00117692 0.000521085 0.000521085 0.000160178 0.000160178 0.00353747 0.00353747 0.0194914 0.0194914 0.0247165 0.0247165 0.0219037 0.0219037 0.00160907 0.00160907 0.0180613 0.0180613 0.00101521 0.00101521 0.00514112 0.00514112 0.000665314 0.000665314 0.00111353 0.00111353 0.0012139 0.0012139 0.0124897 0.0124897 0.000250379 0.000250379 2.10284e-05 2.10284e-05 0.00685345 0.00685345 0.030561 0.030561 0.00210608 0.00210608 0.00580083 0.00580083 0.0024226 0.0024226 0.00244011 0.00244011 0.000148318 0.000148318 0.00151241 0.00151241 0.00198215 0.00198215 0.000426071 0.000426071 0.0065941 0.0065941 0.00658407 0.00658407 0.00657394 0.00657394 0.00656477 0.00656477 0.000907713 0.000907713 0.00639464 0.00639464 0.000174688 0.000174688 0.000695777 0.000695777 0.00875393 0.00875393 0.000636456 0.000636456 0.00118967 0.00118967 5.51857e-06 5.51857e-06 0.00162262 0.00162262 0.00967102 0.00967102 0.0102143 0.0102143 0.00310396 0.00310396 0.00905868 0.00905868 5.14733e-05 5.14733e-05 7.5993e-05 7.5993e-05 0.0029496 0.0029496 0.0291691 0.0291691 0.0125583 0.0125583 0.00181153 0.00181153 0.00712354 0.00712354 0.000258821 0.000258821 0.000374755 0.000374755 0.000723392 0.000723392 0.00633797 0.00633797 0.00271964 0.00271964 0.0013981 0.0013981 7.09903e-05 7.09903e-05 0.000782039 0.000782039 0.000787633 0.000787633 0.00111338 0.00111338 0.00529183 0.00529183 0.00121255 0.00121255 0.00458149 0.00458149 0.00150478 0.00150478 0.00253635 0.00253635 0.000177603 0.000177603 0 0 0 0 0.00236756 0.00236756 0.000512146 0.000512146 0.0151585 0.0151585 0.00150058 0.00150058 0.00206466 0.00206466 0.0015608 0.0015608 0.0178012 0.0178012 0.00482397 0.00482397 0.0171738 0.0171738 0.0008228 0.0008228 0.00281334 0.00281334 0.00837023 0.00837023 0.0137522 0.0137522 0.00449789 0.00449789 0.012732 0.012732 0.00402035 0.00402035 0.00360826 0.00360826 0.00927752 0.00927752 0.0241702 0.0241702 0.000987863 0.000987863 0.00387966 0.00387966 0.000253136 0.000253136 0.000288436 0.000288436 0.000591259 0.000591259 0.0253573 0.0253573 0.000565283 0.000565283 0.000125984 0.000125984 0.00252692 0.00252692 0 0 0.0031163 0.0031163 0.00146525 0.00146525 0.000904926 0.000904926 0.000938173 0.000938173 0.000477343 0.000477343 0.00127778 0.00127778 0.00155056 0.00155056 0.00121347 0.00121347 0.000985383 0.000985383 0.00446329 0.00446329 0.00253544 0.00253544 0.00133586 0.00133586 0.00160339 0.00160339 3.21447e-05 3.21447e-05 0.00121359 0.00121359 0.000505881 0.000505881 0.00937989 0.00937989 0.00954672 0.00954672 0.000519974 0.000519974 0.0022131 0.0022131 0.000416627 0.000416627 9.95778e-05 9.95778e-05 0.0108417 0.0108417 0.000991821 0.000991821 0.00220199 0.00220199 0.00108083 0.00108083 0.000181551 0.000181551 2.01335e-05 2.01335e-05 0.00212031 0.00212031 0.000838591 0.000838591 0.0182977 0.0182977 0.0225881 0.0225881 0.0039111 0.0039111 0.00509427 0.00509427 0.0148956 0.0148956 0.00318108 0.00318108 0.00274043 0.00274043 0.000589232 0.000589232 0.00269602 0.00269602 0.00942581 0.00942581 6.12959e-05 6.12959e-05 0 0 0.00531898 0.00531898 0 0 0.00268875 0.00268875 0.00481768 0.00481768 0.0036978 0.0036978 0.00371373 0.00371373 0.00472179 0.00472179 0.00088299 0.00088299 0.00317092 0.00317092 0.0208921 0.0208921 0.0211167 0.0211167 0.000133657 0.000133657 0.0209178 0.0209178 0.00144017 0.00144017 0.000937711 0.000937711 0.000509171 0.000509171 0.00643989 0.00643989 0.00224381 0.00224381 0.00451505 0.00451505 0.00136567 0.00136567 0.0114138 0.0114138 0.00035366 0.00035366 0.010427 0.010427 0.00534268 0.00534268 0.00442002 0.00442002 0.0070069 0.0070069 0.00223499 0.00223499 0.00190308 0.00190308 0.0328561 0.0328561 0.00610539 0.00610539 6.0899e-06 6.0899e-06 0.0035806 0.0035806 0.00172752 0.00172752 0.000466152 0.000466152 0.00168478 0.00168478 0.000760109 0.000760109 0.000144162 0.000144162 0.00229096 0.00229096 0.000401987 0.000401987 0.00415392 0.00415392 0.00240228 0.00240228 0.00035014 0.00035014 0.00370999 0.00370999 0.000168582 0.000168582 0.00146899 0.00146899 1.09508e-06 1.09508e-06 0.000912438 0.000912438 0.0199225 0.0199225 0.0067011 0.0067011 0.0001603 0.0001603 0.000104511 0.000104511 0.00378266 0.00378266 0.000715409 0.000715409 0.0023789 0.0023789 0.00223769 0.00223769 0.0142657 0.0142657 0.0108369 0.0108369 0.00577998 0.00577998 0.00615772 0.00615772 0.00803136 0.00803136 0.00605401 0.00605401 0.00340731 0.00340731 0.000395832 0.000395832 0.0112429 0.0112429 0.000700374 0.000700374 0.00430317 0.00430317 0.000106195 0.000106195 0.000845395 0.000845395 0.000697822 0.000697822 0.00166967 0.00166967 0.00438688 0.00438688 0.00336571 0.00336571 0.000873375 0.000873375 0.00870914 0.00870914 0.00248697 0.00248697 0.00140088 0.00140088 0.00586727 0.00586727 0.0119906 0.0119906 0.000389336 0.000389336 0.000235134 0.000235134 0.00211267 0.00211267 0.00459514 0.00459514 0.00109692 0.00109692 0.00102556 0.00102556 0.00896117 0.00896117 0.0177658 0.0177658 0.0129665 0.0129665 0.00322292 0.00322292 0.002154 0.002154 0.00374712 0.00374712 0.00148881 0.00148881 0.0064514 0.0064514 0.000130609 0.000130609 0.00186477 0.00186477 8.60345e-05 8.60345e-05 0.0033959 0.0033959 0.00129032 0.00129032 0.00128587 0.00128587 0.00721788 0.00721788 0.000173217 0.000173217 0.000249522 0.000249522 0.000772478 0.000772478 0.000381016 0.0