<?xml version="1.0"?>
<VTKFile type="PolyData" version="0.1" byte_order="LittleEndian" >
<PolyData>
<Piece NumberOfPoints="21458" NumberOfVerts="0" NumberOfLines="10729" NumberOfStrips="0" NumberOfPolys="0">
<Points>
<DataArray type="Float32" NumberOfComponents="3" format="ascii">
0.0101503 0.103279 0.0173809 -0.00020001 0.111695 0.014141 0.0713154 0.151634 0.017047 0.0887209 0.15825 0.0185892 0.0730237 0.157237 0.00448609 0.0687619 0.169276 -0.000200101 0.0653514 0.0887234 0.00349837 0.0807003 0.0954478 0.00387531 0.0653514 0.0887234 0.00349837 0.0649709 0.104586 0.00149989 0.0653514 0.0887234 0.00349837 0.0490689 0.104708 0.00673454 0.0653514 0.0887234 0.00349837 0.0540477 0.0952812 -0.000200213 0.0653514 0.0887234 0.00349837 0.0578562 0.0780187 -0.000200864 0.0711852 0.0619003 0.0206352 0.0700673 0.0634485 0.0301374 0.0711852 0.0619003 0.0206352 0.0767247 0.0498 0.0241562 0.0263642 0.0719512 0.0257616 0.039209 0.0833426 0.0262504 0.0263642 0.0719512 0.0257616 0.039209 0.0833426 0.0262504 0.0263642 0.0719512 0.0257616 0.050923 0.0761679 0.030574 0.0263642 0.0719512 0.0257616 0.0341593 0.0683241 0.0301463 0.0263642 0.0719512 0.0257616 0.0341593 0.0683241 0.0301463 0.0263642 0.0719512 0.0257616 0.0264102 0.0800984 0.0329941 0.0214379 0.146719 0.0263126 0.0341438 0.159481 0.0252616 0.0214379 0.146719 0.0263126 0.0111807 0.162522 0.0272331 0.0214379 0.146719 0.0263126 0.00645939 0.162472 0.0116566 0.0214379 0.146719 0.0263126 0.0291242 0.146742 0.0282141 0.0214379 0.146719 0.0263126 0.0291242 0.146742 0.0282141 0.0214379 0.146719 0.0263126 0.0291242 0.146742 0.0282141 0.0214379 0.146719 0.0263126 0.0134755 0.123461 0.0333497 0.0682463 0.170203 0.0192141 0.087892 0.166979 0.0100161 0.0682463 0.170203 0.0192141 0.072071 0.167461 0.0302739 0.0682463 0.170203 0.0192141 0.072071 0.167461 0.0302739 0.146541 0.133852 0.00436464 0.148601 0.146497 -0.00020022 0.146541 0.133852 0.00436464 0.1602 0.131896 0.00455621 0.0366122 0.137657 0.0181358 0.0431664 0.150434 0.01677 0.0829291 0.0971703 0.0247627 0.0914039 0.104537 0.0278267 0.0829291 0.0971703 0.0247627 0.0914039 0.104537 0.0278267 0.0829291 0.0971703 0.0247627 0.0865454 0.100206 0.021499 0.0829291 0.0971703 0.0247627 0.0974876 0.102747 0.0309128 0.0353825 0.136883 0.0270637 0.0180864 0.1401 0.0445606 0.0353825 0.136883 0.0270637 0.0195262 0.128573 0.0346225 0.0373164 0.163693 0.0118104 0.0310264 0.16132 -0.0002 0.0288128 0.167737 0.010705 0.0274235 0.159495 -0.000200115 0.12689 0.083065 0.00919289 0.128896 0.096814 0.0143191 0.12689 0.083065 0.00919289 0.123989 0.0912056 0.0160543 0.12689 0.083065 0.00919289 0.129083 0.0987785 0.00847439 0.12689 0.083065 0.00919289 0.107429 0.0906544 0.00384662 0.12689 0.083065 0.00919289 0.145635 0.0783488 0.00663571 0.12689 0.083065 0.00919289 0.119333 0.0895872 -0.00020013 0.129083 0.0987785 0.00847439 0.147281 0.0959582 0.00536005 0.129083 0.0987785 0.00847439 0.121606 0.091276 -0.000200049 0.134991 0.173022 0.0295171 0.148368 0.170792 0.0248262 0.134991 0.173022 0.0295171 0.148368 0.170792 0.0248262 0.134991 0.173022 0.0295171 0.140435 0.167928 0.0421873 0.134991 0.173022 0.0295171 0.14303 0.175582 0.0339267 0.134991 0.173022 0.0295171 0.123242 0.15635 0.0323145 0.134991 0.173022 0.0295171 0.133316 0.163094 0.0326238 0.0264102 0.0800984 0.0329941 0.0352271 0.0920196 0.0366174 0.0264102 0.0800984 0.0329941 0.0352271 0.0920196 0.0366174 0.0264102 0.0800984 0.0329941 0.0297839 0.0731794 0.0430191 0.0192464 0.120992 0.0130468 0.0300623 0.120436 0.0133571 0.0413093 0.0515 0.0159092 0.0603596 0.0600542 0.0055792 0.0413093 0.0515 0.0159092 0.0346603 0.0603068 0.00943624 0.0413093 0.0515 0.0159092 0.0325625 0.0615363 0.0193358 0.0413093 0.0515 0.0159092 0.0377467 0.0498 0.00296014 0.0413093 0.0515 0.0159092 0.0536657 0.0498 0.010647 0.108407 0.103175 0.0347841 0.112496 0.101427 0.0397611 0.108407 0.103175 0.0347841 0.12797 0.0913517 0.0310772 0.0587621 0.14515 0.00967094 0.0681633 0.161431 0.0200613 0.0587621 0.14515 0.00967094 0.0511085 0.154016 0.00463692 0.11161 0.0839221 0.00825342 0.107429 0.0906544 0.00384662 0.11161 0.0839221 0.00825342 0.107941 0.0738035 -0.000200035 0.11161 0.0839221 0.00825342 0.122373 0.0840118 -0.000200125 0.125547 0.12322 0.0169355 0.141231 0.120422 0.0204202 0.125547 0.12322 0.0169355 0.141231 0.120422 0.0204202 0.069743 0.123305 0.00919565 0.0834747 0.124986 0.0051378 0.101492 0.0515228 0.0270981 0.11245 0.0634881 0.0365114 0.101492 0.0515228 0.0270981 0.119648 0.0556241 0.0185871 0.101492 0.0515228 0.0270981 0.113944 0.0498 0.0321233 0.101492 0.0515228 0.0270981 0.0981731 0.0498 0.0401093 0.0817231 0.116259 0.0318357 0.0888224 0.132498 0.0236205 0.0817231 0.116259 0.0318357 0.0902369 0.12272 0.0306236 0.0817231 0.116259 0.0318357 0.0902369 0.12272 0.0306236 0.0817231 0.116259 0.0318357 0.0826529 0.125994 0.0402591 0.069685 0.120925 0.0238654 0.0853071 0.121371 0.0213477 0.069685 0.120925 0.0238654 0.0902369 0.12272 0.0306236 0.069685 0.120925 0.0238654 0.0631767 0.127938 0.0349135 0.069685 0.120925 0.0238654 0.0631767 0.127938 0.0349135 0.069685 0.120925 0.0238654 0.0594155 0.127019 0.0304742 0.069685 0.120925 0.0238654 0.0750966 0.130869 0.0318368 0.069685 0.120925 0.0238654 0.0750966 0.130869 0.0318368 0.069685 0.120925 0.0238654 0.0543015 0.125187 0.0404752 0.0967209 0.110274 0.00451139 0.114382 0.127712 0.0103368 0.0967209 0.110274 0.00451139 0.112144 0.107284 0.00470746 0.0967209 0.110274 0.00451139 0.112838 0.113795 0.0139386 0.0967209 0.110274 0.00451139 0.112037 0.109294 0.00149921 0.0392023 0.11141 0.0155108 0.0300623 0.120436 0.0133571 0.0392023 0.11141 0.0155108 0.0572182 0.109657 0.0192079 0.0359502 0.13805 0.00149927 0.0206987 0.152823 0.00149976 0.0359502 0.13805 0.00149927 0.0380145 0.151321 -0.000200384 0.0359502 0.13805 0.00149927 0.0493776 0.137779 -0.000200375 0.0663828 0.176445 0.0239059 0.0682463 0.170203 0.0192141 0.129128 0.130375 0.00338281 0.146284 0.120888 0.00322622 0.129128 0.130375 0.00338281 0.146312 0.130517 0.0117499 0.109229 0.120867 0.0321719 0.128045 0.132129 0.0319007 0.145635 0.0783488 0.00663571 0.157323 0.0766131 -0.00020004 0.0239826 0.122292 0.00594581 0.0192464 0.120992 0.0130468 0.0239826 0.122292 0.00594581 0.0353395 0.125486 0.0110234 0.0239826 0.122292 0.00594581 0.0214551 0.110385 -0.000200093 0.136032 0.160606 0.00330053 0.139514 0.177713 0.00149959 0.136032 0.160606 0.00330053 0.139001 0.16142 0.0110589 0.136032 0.160606 0.00330053 0.143788 0.172393 0.00773738 0.136032 0.160606 0.00330053 0.149205 0.168153 0.0101583 0.136032 0.160606 0.00330053 0.130867 0.172664 -0.000200181 0.0710641 0.148361 0.0146074 0.0587621 0.14515 0.00967094 0.0710641 0.148361 0.0146074 0.0743546 0.157372 0.007824 0.0710641 0.148361 0.0146074 0.0743546 0.157372 0.007824 0.0710641 0.148361 0.0146074 0.0804497 0.15774 0.0130144 0.0710641 0.148361 0.0146074 0.0730237 0.157237 0.00448609 0.0710641 0.148361 0.0146074 0.0713154 0.151634 0.017047 0.137714 0.112798 0.00586906 0.146284 0.120888 0.00322622 0.137714 0.112798 0.00586906 0.146284 0.120888 0.00322622 0.137714 0.112798 0.00586906 0.13749 0.123795 0.00832966 0.137714 0.112798 0.00586906 0.13749 0.123795 0.00832966 0.137714 0.112798 0.00586906 0.14941 0.106968 0.014235 0.137714 0.112798 0.00586906 0.146877 0.101183 0.00322685 0.137714 0.112798 0.00586906 0.147281 0.0959582 0.00536005 0.137714 0.112798 0.00586906 0.133476 0.124247 -0.000200359 0.0585134 0.107589 0.0243003 0.069685 0.120925 0.0238654 0.0585134 0.107589 0.0243003 0.0493506 0.126259 0.0239734 0.0585134 0.107589 0.0243003 0.0584448 0.0990505 0.0303634 0.0585134 0.107589 0.0243003 0.0454669 0.113392 0.0308969 0.0585134 0.107589 0.0243003 0.0552971 0.105798 0.0302931 0.0585134 0.107589 0.0243003 0.0552971 0.105798 0.0302931 0.10464 0.114299 0.012953 0.115088 0.120789 0.0251185 0.10464 0.114299 0.012953 0.104872 0.13049 0.0114008 0.10464 0.114299 0.012953 0.0922548 0.123322 0.0130431 0.10464 0.114299 0.012953 0.119912 0.109252 0.023163 0.10464 0.114299 0.012953 0.12299 0.109898 0.0180262 0.115707 0.148341 0.0341852 0.122789 0.163889 0.0240237 0.115707 0.148341 0.0341852 0.123242 0.15635 0.0323145 0.115707 0.148341 0.0341852 0.125132 0.151935 0.037313 0.115707 0.148341 0.0341852 0.102044 0.151328 0.0343661 0.0493506 0.126259 0.0239734 0.0366122 0.137657 0.0181358 0.0493506 0.126259 0.0239734 0.0560339 0.130779 0.0115463 0.0493506 0.126259 0.0239734 0.0599986 0.131732 0.0225534 0.0493506 0.126259 0.0239734 0.0599986 0.131732 0.0225534 0.0493506 0.126259 0.0239734 0.069685 0.120925 0.0238654 0.0493506 0.126259 0.0239734 0.0594155 0.127019 0.0304742 0.0493506 0.126259 0.0239734 0.0538121 0.132628 0.0362221 0.0474717 0.159962 0.0179402 0.0373164 0.163693 0.0118104 0.0474717 0.159962 0.0179402 0.0577517 0.162175 0.00925492 0.0185623 0.0898191 0.0218439 0.0314137 0.0993786 0.0219378 0.0185623 0.0898191 0.0218439 0.0344993 0.094007 0.0169069 0.0185623 0.0898191 0.0218439 0.0237926 0.0909252 0.013553 0.0185623 0.0898191 0.0218439 0.0192299 0.1026 0.0236318 0.0185623 0.0898191 0.0218439 0.014842 0.0907584 0.0314387 0.0185623 0.0898191 0.0218439 0.014842 0.0907584 0.0314387 0.0185623 0.0898191 0.0218439 0.0140175 0.0852876 0.0468933 0.0185623 0.0898191 0.0218439 0.0136627 0.087173 0.0350867 0.0427817 0.164613 0.00583398 0.0373164 0.163693 0.0118104 0.0427817 0.164613 0.00583398 0.0577517 0.162175 0.00925492 0.0427817 0.164613 0.00583398 0.0446606 0.176693 -0.000200047 0.039209 0.0833426 0.0262504 0.0405329 0.0912022 0.0316048 0.039209 0.0833426 0.0262504 0.050923 0.0761679 0.030574 0.039209 0.0833426 0.0262504 0.0414991 0.0733113 0.0363814 0.039209 0.0833426 0.0262504 0.0341593 0.0683241 0.0301463 0.0615204 0.0789497 0.00827797 0.0642895 0.0932561 0.0094774 0.0615204 0.0789497 0.00827797 0.0840793 0.0803058 0.00456099 0.136192 0.127937 0.0150364 0.129128 0.130375 0.00338281 0.136192 0.127937 0.0150364 0.141231 0.120422 0.0204202 0.136192 0.127937 0.0150364 0.141231 0.120422 0.0204202 0.136192 0.127937 0.0150364 0.146312 0.130517 0.0117499 0.136192 0.127937 0.0150364 0.146312 0.130517
[...]
<PointData Scalars="F_N">
<DataArray type="Float32" Name="F_N" format="ascii">
0.000404161 0.000404161 0.0384683 0.0384683 0.0916904 0.0916904 0.00123042 0.00123042 0.0629124 0.0629124 0.0783524 0.0783524 0.191852 0.191852 0.776937 0.776937 0.011453 0.011453 0.000525351 0.000525351 0.265522 0.265522 1.03559 1.03559 0.0441316 0.0441316 0.729964 0.729964 0.0649651 0.0649651 0.0506282 0.0506282 0.00594792 0.00594792 0.0379379 0.0379379 0.00146391 0.00146391 0.740098 0.740098 0.105997 0.105997 0.129781 0.129781 0.0347677 0.0347677 0.0284906 0.0284906 0.00838497 0.00838497 0.0370104 0.0370104 0.193993 0.193993 0 0 0.0693569 0.0693569 0.08665 0.08665 0.0516691 0.0516691 0.0109945 0.0109945 0.00980233 0.00980233 0.0508292 0.0508292 0.0214391 0.0214391 0.000438779 0.000438779 0.103202 0.103202 0.0197137 0.0197137 0.0411128 0.0411128 0.0109732 0.0109732 0.0291331 0.0291331 0.0228897 0.0228897 0.118457 0.118457 0 0 0.0442487 0.0442487 0.151413 0.151413 0.0227338 0.0227338 0.0199763 0.0199763 0.00215562 0.00215562 0.0187621 0.0187621 0.186316 0.186316 0.0295544 0.0295544 0.18491 0.18491 0.030207 0.030207 0.0249214 0.0249214 0.000704875 0.000704875 0.00192219 0.00192219 0.000326934 0.000326934 0.00037182 0.00037182 9.46292e-05 9.46292e-05 0.0158079 0.0158079 0.00596808 0.00596808 0.0417448 0.0417448 0.0723445 0.0723445 0.0234262 0.0234262 0.0315487 0.0315487 0.109964 0.109964 0.00882122 0.00882122 0.0352224 0.0352224 0.200391 0.200391 0.0253955 0.0253955 0.0245464 0.0245464 2.87717e-07 2.87717e-07 0.000391308 0.000391308 0.00758264 0.00758264 0.105542 0.105542 0.0676211 0.0676211 0.00299176 0.00299176 0.279543 0.279543 0.0734855 0.0734855 0.0492203 0.0492203 0.0436402 0.0436402 0.153695 0.153695 0.0128133 0.0128133 0.0128133 0.0128133 0.0029241 0.0029241 0.00391656 0.00391656 0.00322696 0.00322696 0.0194787 0.0194787 0.102233 0.102233 0.00392933 0.00392933 0.00243413 0.00243413 0.000935011 0.000935011 0.347849 0.347849 0.346978 0.346978 0.0178528 0.0178528 0.00176752 0.00176752 0.00943532 0.00943532 0.00567326 0.00567326 0.0355425 0.0355425 0.232165 0.232165 0.066623 0.066623 0.0848608 0.0848608 0.0151713 0.0151713 0.00746669 0.00746669 0.0748789 0.0748789 0.0236734 0.0236734 0.160363 0.160363 0.0331953 0.0331953 0.15753 0.15753 0.0379243 0.0379243 0.000369093 0.000369093 0.0221067 0.0221067 0.151621 0.151621 0.294485 0.294485 0.00115371 0.00115371 0.249458 0.249458 0.196146 0.196146 0.0199823 0.0199823 0.0784832 0.0784832 0.00431274 0.00431274 0.31977 0.31977 0.049635 0.049635 0.00713264 0.00713264 0.108721 0.108721 0.030369 0.030369 0.0438684 0.0438684 0.25102 0.25102 0.0339505 0.0339505 0.0669312 0.0669312 0.0388991 0.0388991 0.0454223 0.0454223 0.00266844 0.00266844 0.0344759 0.0344759 0.16705 0.16705 0.0666277 0.0666277 0.0895584 0.0895584 0.049964 0.049964 0.0198269 0.0198269 0.124458 0.124458 0.0812403 0.0812403 0.053284 0.053284 0.0169123 0.0169123 0.00681796 0.00681796 0.0258863 0.0258863 0.000300163 0.000300163 0.0223246 0.0223246 0.00561157 0.00561157 0.00502962 0.00502962 0.0858867 0.0858867 0.00137208 0.00137208 0.00790721 0.00790721 0.00182351 0.00182351 0.0388643 0.0388643 0.0161645 0.0161645 0.0206421 0.0206421 0.0423394 0.0423394 0.122557 0.122557 0.0952729 0.0952729 0.00363823 0.00363823 0.00611947 0.00611947 0.11757 0.11757 0.0094689 0.0094689 0.00226471 0.00226471 0.0638593 0.0638593 0.0543396 0.0543396 0.00244675 0.00244675 0.0566167 0.0566167 0.00489151 0.00489151 0.0184305 0.0184305 0.00206043 0.00206043 3.43684e-05 3.43684e-05 0.000184738 0.000184738 0.138359 0.138359 0.0514902 0.0514902 0.0640891 0.0640891 0.010113 0.010113 0.0672312 0.0672312 0.0302571 0.0302571 0.000716099 0.000716099 0.0424155 0.0424155 0.0440898 0.0440898 0.0411524 0.0411524 0.139336 0.139336 0.173832 0.173832 0.0258864 0.0258864 0.204565 0.204565 0.110343 0.110343 0.0243566 0.0243566 0.00155052 0.00155052 0.294838 0.294838 0.300592 0.300592 0.0555899 0.0555899 0.0902978 0.0902978 0.0303331 0.0303331 0.0986574 0.0986574 0.172744 0.172744 0.122325 0.122325 0.209484 0.209484 0.00418646 0.00418646 0.0318511 0.0318511 0.0360246 0.0360246 0.00964553 0.00964553 0.00430533 0.00430533 0.0309877 0.0309877 0.0364502 0.0364502 0.164771 0.164771 0.0441708 0.0441708 0.247739 0.247739 0.131356 0.131356 0.0112035 0.0112035 0.0072317 0.0072317 0.0020656 0.0020656 0.0322897 0.0322897 0.0648774 0.0648774 0.0210254 0.0210254 0.0453548 0.0453548 0.0562142 0.0562142 0.0502551 0.0502551 0.126624 0.126624 0.0254317 0.0254317 0.0531569 0.0531569 0.247854 0.247854 0.00338987 0.00338987 0.110427 0.110427 0.12058 0.12058 0.0158565 0.0158565 0.0118977 0.0118977 0.0755908 0.0755908 0.0735561 0.0735561 0.436645 0.436645 0.384118 0.384118 0.0822039 0.0822039 0.041993 0.041993 0.0541785 0.0541785 0.0651173 0.0651173 5.47571e-05 5.47571e-05 0.0405803 0.0405803 0.893272 0.893272 0.00349538 0.00349538 0.139724 0.139724 0.322492 0.322492 0.131036 0.131036 0.179468 0.179468 0.106759 0.106759 0.532274 0.532274 0.0774759 0.0774759 0.027943 0.027943 0.00785809 0.00785809 0.127638 0.127638 0.0305192 0.0305192 0.397604 0.397604 0.371598 0.371598 0.00601285 0.00601285 0.0134376 0.0134376 0.221479 0.221479 0.000207206 0.000207206 0.0114474 0.0114474 0.0170248 0.0170248 0.0319407 0.0319407 0.00766018 0.00766018 0.0906744 0.0906744 0.0162806 0.0162806 0.0243611 0.0243611 0.060879 0.060879 0.0776498 0.0776498 0.0489992 0.0489992 0.000868636 0.000868636 0.10835 0.10835 0.109627 0.109627 7.65814e-05 7.65814e-05 0.0155316 0.0155316 0.0586229 0.0586229 0.154362 0.154362 0.0584613 0.0584613 0.0714688 0.0714688 0.0714688 0.0714688 0.00391772 0.00391772 0.318927 0.318927 0.323152 0.323152 0.0272941 0.0272941 0.00706322 0.00706322 0.0944832 0.0944832 0.080838 0.080838 0 0 0.222876 0.222876 0.0219233 0.0219233 0.0222813 0.0222813 0.0381264 0.0381264 0.0309309 0.0309309 0.228719 0.228719 0.00039967 0.00039967 0.132969 0.132969 0.00703792 0.00703792 0.0292311 0.0292311 0.0632409 0.0632409 0.155174 0.155174 0 0 0.00590517 0.00590517 0.000173377 0.000173377 0.00028171 0.00028171 0.167397 0.167397 0.0349042 0.0349042 0.0558253 0.0558253 0.00838967 0.00838967 0.157152 0.157152 0.149737 0.149737 0.00015639 0.00015639 0.000135818 0.000135818 0.00487873 0.00487873 0.0385694 0.0385694 0.0100379 0.0100379 0.0315146 0.0315146 0.319824 0.319824 0.132969 0.132969 0.0123994 0.0123994 0.00038322 0.00038322 0.075412 0.075412 0.0232278 0.0232278 0.0580224 0.0580224 0.00471569 0.00471569 0.0132402 0.0132402 0.059541 0.059541 0.0336231 0.0336231 0 0 0.0910768 0.0910768 0.150711 0.150711 0.0173485 0.0173485 0.0593512 0.0593512 0 0 0.00442139 0.00442139 0.0360451 0.0360451 0.0670794 0.0670794 0.024014 0.024014 0.0420141 0.0420141 0.0167299 0.0167299 0.0442159 0.0442159 0.107898 0.107898 0.143643 0.143643 0.0642995 0.0642995 0.0245095 0.0245095 0.303567 0.303567 0.0070624 0.0070624 0.00445637 0.00445637 0.00751401 0.00751401 0.000784896 0.000784896 0.12308 0.12308 0.0254792 0.0254792 0.0344669 0.0344669 0.034896 0.034896 0.0231564 0.0231564 0.117215 0.117215 0.0291372 0.0291372 0 0 0 0 0.016239 0.016239 0.00536129 0.00536129 0.00578501 0.00578501 0.113328 0.113328 0.000423879 0.000423879 0.0165304 0.0165304 0.0576081 0.0576081 0.12518 0.12518 0.0597041 0.0597041 0.0302454 0.0302454 0.24679 0.24679 0.149317 0.149317 0.181695 0.181695 0.351554 0.351554 0.365213 0.365213 0.0102533 0.0102533 0.091942 0.091942 0.0953902 0.0953902 0.00263963 0.00263963 0.09887 0.09887 0.0504594 0.0504594 0.135657 0.135657 0.442544 0.442544 0 0 0.0222739 0.0222739 0.00239654 0.00239654 0.025046 0.025046 0.0496506 0.0496506 0.0103995 0.0103995 0.00522841 0.00522841 0.11755 0.11755 0.0296935 0.0296935 0.625631 0.625631 0.235728 0.235728 0.0934422 0.0934422 0.0500375 0.0500375 0.00144785 0.00144785 0.0477448 0.0477448 0.0551349 0.0551349 0.0789916 0.0789916 0.00295111 0.00295111 0.000112986 0.000112986 0.0671309 0.0671309 0.0183561 0.0183561 0.0125102 0.0125102 0.00744726 0.00744726 0.0495167 0.0495167 0.00079158 0.00079158 0 0 0.239326 0.239326 0.248439 0.248439 0.269163 0.269163 0.0142179 0.0142179 0.00660824 0.00660824 0.107957 0.107957 0.216778 0.216778 0.00720077 0.00720077 0.00737148 0.00737148 0.060016 0.060016 0.00108468 0.00108468 0.013825 0.013825 0.012297 0.012297 0.00123437 0.00123437 0.00838891 0.00838891 0.000462388 0.000462388 0.00799153 0.00799153 0.0745284 0.0745284 0.0803975 0.0803975 0.00328424 0.00328424 0.144543 0.144543 0.0166019 0.0166019 0.102392 0.102392 0.280595 0.280595 0.176023 0.176023 0.0341708 0.0341708 0.152037 0.152037 0.330006 0.330006 0.136448 0.136448 0.0268609 0.0268609 0.00479846 0.00479846 0.00298594 0.00298594 0.0584857 0.0584857 0.0100188 0.0100188 0.0601639 0.0601639 0.0151706 0.0151706 0.117219 0.117219 0.121544 0.121544 0.00634236 0.00634236 0.0279554 0.0279554 0.0337656 0.0337656 0.268213 0.268213 0.0319184 0.0319184 0.0517529 0.0517529 0.0544149 0.0544149 0.161439 0.161439 0.206721 0.206721 0.303798 0.303798 0.451596 0.451596 0.0651355 0.0651355 0.0113289 0.0113289 0.349512 0.349512 0.245323 0.245323 0.041882 0.041882 0.00108596 0.00108596 0.0802351 0.0802351 0.0185622 0.0185622 0.0269459 0.0269459 0.0158079 0.0158079 0.0134497 0.0134497 0.286675 0.286675 0.0299291 0.0299291 0.00493513 0.00493513 0.000354202 0.000354202 0.00014839 0.00014839 0.0343101 0.0343101 0.00424396 0.00424396 0.0318227 0.0318227 0.0193064 0.0193064 0.00207628 0.00207628 0.27373 0.27373 0.276384 0.276384 0.0660674 0.0660674 0.00147515 0.00147515 0.0209451 0.0209451 0.0356992 0.0356992 0.0540179 0.0540179 0.0120736 0.0120736 0.0562616 0.0562616 0.40153 0.40153 0.226283 0.226283 0.440473 0.440473 0.0246441 0.0246441 0.00234824 0.00234824 0.0973975 0.0973975 0.189363 0.189363 0.0333896 0.0333896 0.145885 0.145885 0.0338592 0.0338592 0.392751 0.392751 0.191765 0.191765 0.00581952 0.00581952 0.0697378 0.0697378 0.178669 0.178669 0.00369065 0.00369065 0.362949 0.362949 0.346013 0.346013 0.019228 0.019228 0.0784884 0.0784884 0.0115002 0.0115002 0.0697697 0.0697697 0.0274462 0.0274462 0.0274462 0.0274462 0.0485043 0.0485043 0.0481449 0.0481449 0.00786672 0.00786672 0.237994 0.237994 0.00392516 0.00392516 0.0179068 0.0179068 0.378039 0.378039 0.0789999 0.0789999 0.0834093 0.0834093 0.0779146 0.0779146 0.0301076 0.0301076 0.00328726 0.00328726 0.0528974 0.0528974 0.135931 0.135931 0.014503 0.014503 0.380253 0.380253 0.0669345 0.0669345 0.354284 0.354284 0.0249915 0.0249915 0.0481739 0.0481739 0.0703762 0.0703762 0.026062 0.026062 0.0126151 0.0126151 0.0031045 0.0031045 0.0142421 0.0142421 0.0188247 0.0188247 0.242359 0.242359 0.226337 0.226337 0.0243338 0.0243338 0.00690097 0.00690097 0.410916 0.410916 0.0246749 0.0246749 0.503279 0.503279 0.0743047 0.0743047 0.0871125 0.0871125 0.097189 0.097189 0.00276192 0.00276192 0.0121117 0.0121117 0.00800396 0.00800396 0 0 0.0385679 0.0385679 0.0488368 0.0488368 0.0273496 0.0273496 0.0149357 0.0149357 0.00759795 0.00759795 0.0277087 0.0277087 0.0621379 0.0621379 0.0151227 0.0151227 0.0115684 0.0115684 0.0346717 0.0346717 0.0222251 0.0222251 0.00706971 0.00706971 0.00796744 0.00796744 0.025401 0.025401 0.155626 0.155626 0.0483437 0.0483437 0.306058 0.306058 0.282165 0.282165 0.0308486 0.0308486 0.00221953 0.00221953 0.0267059 0.0267059 0.22619 0.22619 0.330302 0.330302 0.003997 0.003997 0.143149 0.143149 0.00188934 0.00188934 0.0709586 0.0709586 0.00644628 0.00644628 0.0320677 0.0320677 0.0239165 0.0239165 0.014308 0.014308 0.0615238 0.0615238 0.00186053 0.00186053 0.000471792 0.000471792 0.00458924 0.00458924 0.0152327 0.0152327 0.231845 0.231845 0.0740703 0.0740703 0.23314 0.23314 0.0203598 0.0203598 0.0377551 0.0377551 0.0969004 0.0969004 0.000164103 0.000164103 0.0478566 0.0478566 0.0205659 0.0205659 0.0107305 0.0107305 0.00205491 0.00205491 0.0385255 0.0385255 0.00569478 0.00569478 0.0309842 0.0309842 0.0736215 0.0736215 0.113607 0.113607 0.121936 0.121936 0.0224652 0.0224652 0.067933 0.067933 0.175919 0.175919 0.646891 0.646891 0.156807 0.156807 0.0366291 0.0366291 0.0153863 0.0153863 0.0568965 0.0568965 0.00110519 0.00110519 0.0702829 0.0702829 0.0393203 0.0393203 0.255959 0.255959 0.0373311 0.0373311 0.140376 0.140376 0.144625 0.144625 0.0161231 0.0161231 0.00243131 0.00243131 0.00290034 0.00290034 0.002308 0.002308 0.634586 0.634586 0.122837 0.122837 0.000623957 0.000623957 0.0309386 0.0309386 0.094018 0.094018 0.0840386 0.0840386 0.00760931 0.00760931 0.0992738 0.0992738 0.758278 0.758278 0.30021 0.30021 0.000716659 0.000716659 0.38372 0.38372 0.0155772 0.0155772 0.143565 0.143565 0.0506948 0.0506948 0.0609175 0.0609175 0.0657367 0.0657367 0 0 0.00336053 0.00336053 0.0281633 0.0281633 0.0919374 0.0919374 0.0216571 0.0216571 0.0180247 0.0180247 0.00215433 0.00215433 0.0237052 0.0237052 0.0296512 0.0296512 0.0104347 0.0104347 0.0186519 0.0186519 0.01741 0.01741 0.808452 0.808452 0.0239984 0.0239984 0.000312643 0.000312643 0.001115 0.001115 0.0741694 0.0741694 0.00181283 0.00181283 0.0023893 0.0023893 0.058313 0.058313 0.0139595 0.0139595 0.123428 0.123428 0.0193654 0.0193654 0.0489236 0.0489236 0.0971457 0.0971457 0.0709105 0.0709105 0.0860701 0.0860701 0.0099667 0.0099667 0.155854 0.155854 0.0124057 0.0124057 0.0315893 0.0315893 0.0486191 0.0486191 0.0581385 0.0581385 0.0945274 0.0945274 0.04544 0.04544 0.00359268 0.00359268 0.0442149 0.0442149 0.000370973 0.000370973 0.105575 0.105575 0.0017799 0.0017799 0.0311108 0.0311108 0.102928 0.102928 0.0621001 0.0621001 0.334564 0.334564 0.408826 0.408826 0.0728712 0.0728712 0 0 0.0666306 0.0666306 0.102392 0.102392 0.175433 0.175433 0.0242352 0.0242352 0.000491041 0.000491041 0.27031 0.27031 0.0324448 0.0324448 0.206694 0.206694 0.07645 0.07645 0.000351595 0.000351595 0.0530641 0.0530641 0.0510549 0.0510549 0.0136119 0.0136119 0.000187884 0.000187884 0.136949 0.136949 0.00679129 0.00679129 0.203101 0.203101 0.0807755 0.0807755 0.00697281 0.00697281 0.0520744 0.0520744 0.00542951 0.00542951 0.0396953 0.0396953 0.00613791 0.00613791 0.0182929 0.0182929 0.344073 0.344073 0.0274142 0.0274142 0.041131 0.041131 0.118511 0.118511 0.0761719 0.0761719 0.0065614 0.0065614 0.0179578 0.0179578 0.0167237 0.0167237 0.0201128 0.0201128 0.330892 0.330892 0.347303 0.347303 0.0674118 0.0674118 0.201902 0.201902 0.00141684 0.00141684 0.0327912 0.0327912 0.0166287 0.0166287 0.0548911 0.0548911 0.144307 0.144307 0.00349748 0.00349748 0.130188 0.130188 0.0323671 0.0323671 0.0732146 0.0732146 0.0466496 0.0466496 0.0809757 0.0809757 0.0558279 0.0558279 0.0364376 0.0364376 0.0293703 0.0293703 0.0638117 0.0638117 0.183996 0.183996 5.50819e-05 5.50819e-05 4.76557e-05 4.76557e-05 0.0138448 0.0138448 0.0877767 0.0877767 0.0429113 0.0429113 0.00155836 0.00155836 0.103991 0.103991 0.0121561 0.0121561 0.0086722 0.0086722 0.00216724 0.00216724 0.000132574 0.000132574 0.233912 0.233912 0.00337021 0.00337021 0.0184052 0.0184052 0.111 0.111 0.344979 0.344979 0.358162 0.358162 0.0817655 0.0817655 0.033645 0.033645 0.222715 0.222715 0.052436 0.052436 0.0442219 0.0442219 0.00810524 0.00810524 0.0128859 0.0128859 0.000187601 0.000187601 0.0352477 0.0352477 0.063828 0.063828 0.0749754 0.0749754 0.105297 0.105297 0.278105 0.278105 0.0225228 0.0225228 0.0785583 0.0785583 0.0274275 0.0274275 0.00487178 0.00487178 0.0611534 0.0611534 0.0117216 0.0117216 0.0500214 0.0500214 0.0451617 0.0451617 0.0323979 0.0323979 0.0557107 0.0557107 0.00638599 0.00638599 0.02929 0.02929 0.0343823 0.0343823 0.0207013 0.0207013 0.0867356 0.0867356 0.00173689 0.00173689 0.0644587 0.0644587 0.077357 0.077357 0.0273158 0.0273158 0 0 0.0654058 0.0654058 0.00635435 0.00635435 0.117265 0.117265 0.215097 0.215097 0.0507731 0.0507731 0.0980707 0.0980707 0.026358 0.026358 0.010976 0.010976 0.0799259 0.0799259 0.0100879 0.0100879 0.198263 0.198263 0.167678 0.167678 0.467462 0.467462 0.00253965 0.00253965 0.00364187 0.00364187 0.00590438 0.00590438 0.140536 0.140536 0.0203281 0.0203281 0.0267695 0.0267695 0.00130296 0.00130296 0.0256302 0.0256302 0.0598767 0.0598767 0.00289176 0.00289176 0.0923265 0.0923265 0.00966652 0.00966652 0.00875726 0.00875726 0.0106396 0.0106396 0.216138 0.216138 0.00363104 0.00363104 0.00115601 0.00115601 0.00494815 0.00494815 0.00156762 0.00156762 0.00485286 0.00485286 0.00362414 0.00362414 0.000484117 0.000484117 1.14401e-05 1.14401e-05 0.0736264 0.0736264 0.00386424 0.00386424 0.00982257 0.00982257 0.0833055 0.0833055 0.244947 0.244947 0.0123111 0.0123111 0.0077393 0.0077393 0.00367524 0.00367524 0.0636114 0.0636114 0.0108143 0.0108143 0.0178015 0.0178015 0.00630315 0.00630315 0.0289572 0.0289572 0.00372229 0.00372229 0.00245003 0.00245003 0.0779434 0.0779434 0.0884544 0.0884544 0.0296213 0.0296213 0.00609374 0.00609374 0.0202281 0.0202281 0.0344736 0.0344736 0.016513 0.016513 0.0205477 0.0205477 0.093171 0.093171 0.0792913 0.0792913 0.495397 0.495397 0.000120434 0.000120434 0.276353 0.276353 0.197116 0.197116 0.802821 0.802821 0.138379 0.138379 0.11909 0.11909 0.030931 0.030931 0.0338843 0.0338843 0.00169159 0.00169159 0.107374 0.107374 0.0128689 0.0128689 0.0480528 0.0480528 0.0278887 0.0278887 0.00970294 0.00970294 0.0881328 0.0881328 0.0361784 0.0361784 0.143091 0.143091 0.24261 0.24261 0.000901663 0.000901663 9.50317e-05 9.50317e-05 0.104748 0.104748 0.00417604 0.00417604 0.0775514 0.0775514 0.0279372 0.0279372 0.102614 0.102614 0.101533 0.101533 0.179957 0.179957 0.0838614 0.0838614 0.260337 0.260337 0.117376 0.117376 0.529459 0.529459 0.0365173 0.0365173 0.404788 0.404788 0.000298302 0.000298302 0.143964 0.143964 0.0228458 0.0228458 0.0620436 0.0620436 0.0811523 0.0811523 0.080312 0.080312 0.015648 0.015648 0.00548375 0.00548375 0.0255189 0.0255189 0.0206182 0.0206182 0.00240062 0.00240062 0.00603003 0.00603003 0.0852752 0.0852752 0.00350006 0.00350006 0.013021 0.013021 0.0777233 0.0777233 0.0212401 0.0212401 0.0209422 0.0209422 0.272899 0.272899 0.144036 0.144036 0.0460685 0.0460685 0.0651415 0.0651415 0.0120154 0.0120154 0.100388 0.100388 0.0646959 0.0646959 0.0396321 0.0396321 0.0223227 0.0223227 0.0344044 0.0344044 0.00202883 0.00202883 0.0139644 0.0139644 0.0801965 0.0801965 0.0359153 0.0359153 3.44566e-05 3.44566e-05 0.0399045 0.0399045 0.0708661 0.0708661 0.0267245 0.0267245 0.49553 0.49553 0.00727697 0.00727697 0.0565071 0.0565071 0.0404918 0.0404918 0.0248773 0.0248773 0.0104597 0.0104597 0.0901228 0.0901228 0.0146902 0.0146902 0.0218906 0.0218906 0.061837 0.061837 0.000248104 0.000248104 0.0503608 0.0503608 0.0740641 0.0740641 0.000368515 0.000368515 0.00185193 0.00185193 0.0124121 0.0124121 0.0154075 0.0154075 0.0319087 0.0319087 0.0742286 0.0742286 0.0115525 0.0115525 0.0954638 0.0954638 0.326809 0.326809 0.0102228 0.0102228 0.0920635 0.0920635 0.00103617 0.00103617 0.0733812 0.0733812 0.0050866 0.0050866 0.071589 0.071589 0.390992 0.390992 0.158869 0.158869 0 0 0.437842 0.437842 0.104286 0.104286 0.0473516 0.0473516 0.00744508 0.00744508 0.0827265 0.0827265 0.127397 0.127397 0.0105556 0.0105556 0.000972934 0.000972934 0.211056 0.211056 0.211309 0.211309 0.0201377 0.0201377 0.0103802 0.0103802 0.000173432 0.000173432 0.00833121 0.00833121 0.00305615 0.00305615 0.105782 0.105782 0.00657174 0.00657174 0.109989 0.109989 0.0270377 0.0270377 0.0554759 0.0554759 0.00637207 0.00637207 0.0541579 0.0541579 0.0523006 0.0523006 0.058184 0.058184 0.0457435 0.0457435 0.00886412 0.00886412 0.0985346 0.0985346 0.496454 0.496454 0.0441293 0.0441293 0.398681 0.398681 0.451373 0.451373 0.00279474 0.00279474 0.0954922 0.0954922 0.0127531 0.0127531 0.0570166 0.0570166 0.0712415 0.0712415 0.228171 0.228171 0.00897414 0.00897414 0.0126584 0.0126584 0.0336557 0.0336557 0.0127348 0.0127348 0.11361 0.11361 0.0223018 0.0223018 0.02698 0.02698 0.00323491 0.00323491 0.0886568 0.0886568 0.0141541 0.0141541 0.000981288 0.000981288 0.0960843 0.0960843 0.0536846 0.0536846 0.01453 0.01453 0.0789434 0.0789434 0.0518501 0.0518501 0.0673107 0.0673107 0.176481 0.176481 0.144278 0.144278 0.0530695 0.0530695 0.0625029 0.0625029 0.0313381 0.0313381 0.0796262 0.0796262 0.0306305 0.0306305 0.101205 0.101205 0.0346568 0.0346568 0.00220656 0.00220656 5.52081e-06 5.52081e-06 0.0151339 0.0151339 0.0456525 0