<?xml version="1.0"?>
<VTKFile type="PolyData" version="0.1" byte_order="LittleEndian" >
<PolyData>
<Piece NumberOfPoints="24740" NumberOfVerts="0" NumberOfLines="12370" NumberOfStrips="0" NumberOfPolys="0">
<Points>
<DataArray type="Float32" NumberOfComponents="3" format="ascii">
0.011789 0.0515 0.0921183 0.00631056 0.0635318 0.0998173 0.011789 0.0515 0.0921183 0.0107674 0.0630552 0.0901564 0.011789 0.0515 0.0921183 0.00309176 0.0498 0.0818846 0.011789 0.0515 0.0921183 0.0207677 0.0497999 0.0821307 0.0305451 0.0635938 0.0945643 0.0308349 0.0498 0.0949698 0.114278 0.141137 0.0927937 0.127554 0.152504 0.0912831 0.0906975 0.143609 0.0915817 0.081111 0.151814 0.0906368 0.0906975 0.143609 0.0915817 0.081111 0.151814 0.0906368 0.0253192 0.0685791 0.0969501 0.0285132 0.0846971 0.111182 0.0253192 0.0685791 0.0969501 0.0288994 0.0679875 0.100275 0.155576 0.0631544 0.0919764 0.1602 0.0548549 0.10171 0.096962 0.0855679 0.0923457 0.0996683 0.0945729 0.099165 0.096962 0.0855679 0.0923457 0.0854893 0.0912967 0.0994319 0.096962 0.0855679 0.0923457 0.0927881 0.102696 0.0926719 0.0173281 0.130737 0.091388 0.032993 0.128931 0.0954755 0.0173281 0.130737 0.091388 0.0332578 0.134811 0.0906989 0.0258002 0.0727725 0.0953338 0.0253192 0.0685791 0.0969501 0.0258002 0.0727725 0.0953338 0.0288994 0.0679875 0.100275 0.0258002 0.0727725 0.0953338 0.0288994 0.0679875 0.100275 0.0258002 0.0727725 0.0953338 0.038901 0.0853428 0.0907984 0.0258002 0.0727725 0.0953338 0.0305451 0.0635938 0.0945643 0.118121 0.0619491 0.0931008 0.12015 0.0497999 0.0992495 0.0979293 0.15581 0.0927495 0.114256 0.164678 0.0915949 0.101759 0.0793589 0.092249 0.096962 0.0855679 0.0923457 0.101759 0.0793589 0.092249 0.11127 0.0762803 0.101877 0.0137138 0.14914 0.097133 0.0179732 0.166053 0.0995898 0.125351 0.119474 0.0925211 0.140465 0.132894 0.0939577 0.125351 0.119474 0.0925211 0.128331 0.132006 0.0910785 0.125351 0.119474 0.0925211 0.128331 0.132006 0.0910785 0.125351 0.119474 0.0925211 0.123884 0.132999 0.0986039 0.125351 0.119474 0.0925211 0.123884 0.132999 0.0986039 0.0250248 0.169511 0.0979177 0.0289266 0.169259 0.112391 0.0250248 0.169511 0.0979177 0.0283832 0.159049 0.105332 0.0250248 0.169511 0.0979177 0.0349235 0.160598 0.0927457 0.0250248 0.169511 0.0979177 0.0349235 0.160598 0.0927457 0.00753261 0.118566 0.0963993 0.0126354 0.131513 0.111269 0.00753261 0.118566 0.0963993 0.00831145 0.125095 0.0924803 0.00753261 0.118566 0.0963993 0.00831145 0.125095 0.0924803 0.00753261 0.118566 0.0963993 -0.000200056 0.116428 0.107468 0.0315779 0.0811964 0.0924076 0.0417049 0.0902294 0.0967626 0.0963576 0.127371 0.0902897 0.0906975 0.143609 0.0915817 0.0963576 0.127371 0.0902897 0.111526 0.146004 0.099774 0.110081 0.131827 0.0946986 0.111526 0.146004 0.099774 0.110081 0.131827 0.0946986 0.123884 0.132999 0.0986039 0.110081 0.131827 0.0946986 0.114278 0.141137 0.0927937 0.127107 0.110215 0.0990971 0.121502 0.12197 0.103052 0.127107 0.110215 0.0990971 0.142212 0.107736 0.0997555 0.0514008 0.108751 0.0925165 0.0413297 0.121526 0.0901137 0.0514008 0.108751 0.0925165 0.065595 0.108217 0.097539 0.0514008 0.108751 0.0925165 0.065595 0.108217 0.097539 0.15475 0.111194 0.10179 0.1602 0.100356 0.107981 0.0488073 0.164625 0.0902092 0.0589286 0.166254 0.105235 0.149977 0.145895 0.0943122 0.145844 0.153394 0.101124 0.149977 0.145895 0.0943122 0.1602 0.137618 0.0903932 0.0761892 0.114515 0.090298 0.0668734 0.122153 0.101869 0.0761892 0.114515 0.090298 0.0668734 0.122153 0.101869 0.0761892 0.114515 0.090298 0.0707675 0.140248 0.0922203 0.038901 0.0853428 0.0907984 0.0315779 0.0811964 0.0924076 0.038901 0.0853428 0.0907984 0.0417049 0.0902294 0.0967626 0.145303 0.112955 0.0964363 0.141833 0.127904 0.103009 0.132085 0.0514999 0.0951193 0.147436 0.0605681 0.0979456 0.132085 0.0514999 0.0951193 0.11919 0.0498 0.0913661 0.132085 0.0514999 0.0951193 0.13408 0.0498 0.0818381 0.026266 0.0591022 0.101283 0.0393353 0.0625933 0.107371 0.026266 0.0591022 0.101283 0.0412962 0.0647726 0.100359 0.026266 0.0591022 0.101283 0.0305451 0.0635938 0.0945643 0.026266 0.0591022 0.101283 0.0124484 0.0665846 0.107563 0.026266 0.0591022 0.101283 0.0144127 0.0615766 0.101902 0.082962 0.118315 0.0936989 0.0761892 0.114515 0.090298 0.082962 0.118315 0.0936989 0.085731 0.129745 0.0984919 0.082962 0.118315 0.0936989 0.0901216 0.118455 0.0969243 0.082962 0.118315 0.0936989 0.0871827 0.108625 0.0942106 0.103674 0.108557 0.0914342 0.109843 0.126982 0.100569 0.103674 0.108557 0.0914342 0.116157 0.105503 0.0928888 0.00831145 0.125095 0.0924803 -0.000200017 0.130658 0.0833178 0.104313 0.0709524 0.0911969 0.101759 0.0793589 0.092249 0.104313 0.0709524 0.0911969 0.101759 0.0793589 0.092249 0.104313 0.0709524 0.0911969 0.117645 0.0636438 0.100059 0.104313 0.0709524 0.0911969 0.118121 0.0619491 0.0931008 0.102705 0.0624448 0.096894 0.104313 0.0709524 0.0911969 0.102705 0.0624448 0.096894 0.11127 0.0762803 0.101877 0.102705 0.0624448 0.096894 0.117645 0.0636438 0.100059 0.00454385 0.109089 0.100279 -0.00020006 0.100002 0.0913342 0.00454385 0.109089 0.100279 -0.000200012 0.117673 0.0908498 0.141833 0.127904 0.103009 0.140465 0.132894 0.0939577 0.0871827 0.108625 0.0942106 0.103674 0.108557 0.0914342 0.0871827 0.108625 0.0942106 0.0927881 0.102696 0.0926719 0.0871827 0.108625 0.0942106 0.0927881 0.102696 0.0926719 0.0332578 0.134811 0.0906989 0.0379521 0.154614 0.0965297 0.1448 0.0656997 0.0931351 0.155576 0.0631544 0.0919764 0.1448 0.0656997 0.0931351 0.155576 0.0631544 0.0919764 0.0413297 0.121526 0.0901137 0.0332578 0.134811 0.0906989 0.0134177 0.0788212 0.0917649 0.00773592 0.0905831 0.0987128 0.0134177 0.0788212 0.0917649 -0.000200197 0.0766038 0.091966 0.0286412 0.147414 0.0935455 0.0332578 0.134811 0.0906989 0.0286412 0.147414 0.0935455 0.0311795 0.152271 0.10031 0.0286412 0.147414 0.0935455 0.0379521 0.154614 0.0965297 0.0286412 0.147414 0.0935455 0.0349235 0.160598 0.0927457 0.0286412 0.147414 0.0935455 0.0349235 0.160598 0.0927457 0.123884 0.132999 0.0986039 0.124869 0.130895 0.101998 0.123884 0.132999 0.0986039 0.124869 0.130895 0.101998 0.0814472 0.168614 0.0911209 0.0892936 0.178912 0.0966306 0.0814472 0.168614 0.0911209 0.0862119 0.168844 0.0953752 0.0814472 0.168614 0.0911209 0.0863927 0.164617 0.0905938 0.0219097 0.110215 0.0946942 0.0197063 0.13044 0.0984437 0.0219097 0.110215 0.0946942 0.0338597 0.105057 0.102512 0.0219097 0.110215 0.0946942 0.0338597 0.105057 0.102512 0.0219097 0.110215 0.0946942 0.0316197 0.106084 0.0950856 0.0387248 0.162051 0.0909957 0.0573165 0.17067 0.101586 0.0862119 0.168844 0.0953752 0.0863927 0.164617 0.0905938 0.0862119 0.168844 0.0953752 0.0979293 0.15581 0.0927495 0.0812846 0.152256 0.0952269 0.081111 0.151814 0.0906368 0.0812846 0.152256 0.0952269 0.081111 0.151814 0.0906368 0.0135507 0.135186 0.0944034 0.00831145 0.125095 0.0924803 0.0135507 0.135186 0.0944034 0.00831145 0.125095 0.0924803 0.0135507 0.135186 0.0944034 0.0137138 0.14914 0.097133 0.0135507 0.135186 0.0944034 0.0173281 0.130737 0.091388 0.0135507 0.135186 0.0944034 0.032993 0.128931 0.0954755 0.0135507 0.135186 0.0944034 0.0299798 0.125639 0.100182 0.0707675 0.140248 0.0922203 0.066166 0.132622 0.091485 0.0707675 0.140248 0.0922203 0.066166 0.132622 0.091485 0.0707675 0.140248 0.0922203 0.066166 0.132622 0.091485 0.0707675 0.140248 0.0922203 0.0706433 0.152946 0.101225 0.0164561 0.0995663 0.0963356 0.0219097 0.110215 0.0946942 0.0164561 0.0995663 0.0963356 0.0219097 0.110215 0.0946942 0.00773592 0.0905831 0.0987128 0.00454385 0.109089 0.100279 0.00773592 0.0905831 0.0987128 -0.0002001 0.0942346 0.109233 0.0618837 0.128272 0.0953112 0.066166 0.132622 0.091485 0.0618837 0.128272 0.0953112 0.066166 0.132622 0.091485 0.0618837 0.128272 0.0953112 0.066166 0.132622 0.091485 0.085731 0.129745 0.0984919 0.0906975 0.143609 0.0915817 0.152632 0.0956825 0.0977797 0.15475 0.111194 0.10179 0.152632 0.0956825 0.0977797 0.1602 0.106485 0.10136 0.153962 0.142563 0.102825 0.141833 0.127904 0.103009 0.153962 0.142563 0.102825 0.149977 0.145895 0.0943122 0.153962 0.142563 0.102825 0.149345 0.163443 0.112726 0.153962 0.142563 0.102825 0.1602 0.15109 0.0942021 0.153962 0.142563 0.102825 0.1602 0.133424 0.0948535 0.106849 0.0770903 0.0955163 0.102705 0.0624448 0.096894 0.106849 0.0770903 0.0955163 0.101759 0.0793589 0.092249 0.106849 0.0770903 0.0955163 0.0854893 0.0912967 0.0994319 0.106849 0.0770903 0.0955163 0.120591 0.0850272 0.0947117 0.106849 0.0770903 0.0955163 0.118121 0.0619491 0.0931008 0.0510331 0.0847263 0.0980381 0.038901 0.0853428 0.0907984 0.0510331 0.0847263 0.0980381 0.0417049 0.0902294 0.0967626 0.123974 0.148239 0.0965688 0.114278 0.141137 0.0927937 0.123974 0.148239 0.0965688 0.114278 0.141137 0.0927937 0.123974 0.148239 0.0965688 0.127102 0.161448 0.103606 0.123974 0.148239 0.0965688 0.124483 0.160542 0.0979199 0.123974 0.148239 0.0965688 0.142806 0.145299 0.103198 0.123974 0.148239 0.0965688 0.145166 0.142696 0.0918537 0.0486564 0.135357 0.0939057 0.0590173 0.13118 0.103789 0.145166 0.142696 0.0918537 0.149977 0.145895 0.0943122 0.145166 0.142696 0.0918537 0.140465 0.132894 0.0939577 0.145166 0.142696 0.0918537 0.140465 0.132894 0.0939577 0.145166 0.142696 0.0918537 0.140465 0.132894 0.0939577 0.145166 0.142696 0.0918537 0.145607 0.158649 0.0916343 0.145166 0.142696 0.0918537 0.137962 0.161311 0.094424 0.106794 0.155009 0.0982954 0.0863927 0.164617 0.0905938 0.106794 0.155009 0.0982954 0.112784 0.174639 0.101794 0.106794 0.155009 0.0982954 0.11862 0.157247 0.110974 0.106794 0.155009 0.0982954 0.114256 0.164678 0.0915949 0.106794 0.155009 0.0982954 0.114256 0.164678 0.0915949 0.0901216 0.118455 0.0969243 0.0871827 0.108625 0.0942106 0.0901216 0.118455 0.0969243 0.0871827 0.108625 0.0942106 0.0901216 0.118455 0.0969243 0.0871827 0.108625 0.0942106 0.0901216 0.118455 0.0969243 0.0927881 0.102696 0.0926719 0.0901216 0.118455 0.0969243 0.103402 0.126003 0.103888 0.0901216 0.118455 0.0969243 0.085731 0.129745 0.0984919 0.0809959 0.0794111 0.0943687 0.0661458 0.0768806 0.0916801 0.111526 0.146004 0.099774 0.123974 0.14823
[...]
<PointData Scalars="F_N">
<DataArray type="Float32" Name="F_N" format="ascii">
0.00430663 0.00430663 0.0109612 0.0109612 0.0102847 0.0102847 0.0453589 0.0453589 0.000121013 0.000121013 0.0867276 0.0867276 0.0479754 0.0479754 0.0732173 0.0732173 0.000771887 0.000771887 0.00646292 0.00646292 0 0 0.062263 0.062263 0.000968297 0.000968297 0.0697203 0.0697203 0.0517668 0.0517668 0.0575747 0.0575747 0.000353808 0.000353808 0.0653936 0.0653936 0.00288629 0.00288629 0.0011947 0.0011947 0.0451634 0.0451634 2.68781e-05 2.68781e-05 0.258111 0.258111 0.0238348 0.0238348 0.00291739 0.00291739 0.00203657 0.00203657 3.85992e-05 3.85992e-05 0.104531 0.104531 0.0967159 0.0967159 0.157646 0.157646 0.124276 0.124276 0.0276785 0.0276785 0.00407021 0.00407021 0.0379023 0.0379023 0.00918436 0.00918436 0.0554888 0.0554888 0.102111 0.102111 0.0228184 0.0228184 0.000219497 0.000219497 0.0122801 0.0122801 0.0112475 0.0112475 0.0104777 0.0104777 0.0239021 0.0239021 0.10952 0.10952 0.106979 0.106979 0.00283329 0.00283329 0.0257731 0.0257731 0.0153949 0.0153949 0.0559353 0.0559353 0.0314607 0.0314607 0 0 0.0377823 0.0377823 0.117882 0.117882 0 0 0.474473 0.474473 0.207039 0.207039 0.0170646 0.0170646 0.0379228 0.0379228 0.0387659 0.0387659 0.00287883 0.00287883 0.00115284 0.00115284 0.000189042 0.000189042 0.000306679 0.000306679 0.00107316 0.00107316 0.050381 0.050381 0.00373979 0.00373979 0.00215021 0.00215021 0.00799891 0.00799891 0.142243 0.142243 0.075299 0.075299 0.0322387 0.0322387 0.117759 0.117759 0.00749894 0.00749894 0.0160977 0.0160977 0.00725243 0.00725243 0.0911665 0.0911665 0.294227 0.294227 0.00373819 0.00373819 0.103007 0.103007 0.00275511 0.00275511 0.00176603 0.00176603 0.00231303 0.00231303 0.00693167 0.00693167 0.00501637 0.00501637 0.0203853 0.0203853 0.00107348 0.00107348 0.0402845 0.0402845 0.232437 0.232437 0.0239636 0.0239636 0.0780799 0.0780799 0.109228 0.109228 3.11787e-05 3.11787e-05 0.0124299 0.0124299 0.030835 0.030835 0.131147 0.131147 0.0167666 0.0167666 0.00124969 0.00124969 0.0135706 0.0135706 0.0419509 0.0419509 0.316105 0.316105 0.0787892 0.0787892 0.0456824 0.0456824 0.0281671 0.0281671 0.0224296 0.0224296 0.0364759 0.0364759 0.0376806 0.0376806 0.0453666 0.0453666 0.0744959 0.0744959 0.0394709 0.0394709 0.0434989 0.0434989 0.144858 0.144858 0.257698 0.257698 0.0807835 0.0807835 0.00416023 0.00416023 0.0750384 0.0750384 0.0221412 0.0221412 0.144223 0.144223 0.00516709 0.00516709 0.0345389 0.0345389 0.188847 0.188847 0.183917 0.183917 0.236019 0.236019 0.0280329 0.0280329 0.0385089 0.0385089 0.162565 0.162565 0.0243102 0.0243102 0.000185836 0.000185836 0.0678264 0.0678264 0.178915 0.178915 0.00392288 0.00392288 0.00515968 0.00515968 0.0160841 0.0160841 0 0 0.0536673 0.0536673 0.0942657 0.0942657 0.0168798 0.0168798 0 0 0 0 0.00102331 0.00102331 0.151524 0.151524 0.0164555 0.0164555 0.0325583 0.0325583 0.0437652 0.0437652 0.00291271 0.00291271 0.245324 0.245324 0.0544117 0.0544117 0.0680447 0.0680447 0.0353727 0.0353727 0.0315971 0.0315971 0.0131513 0.0131513 0.0153141 0.0153141 0.0383443 0.0383443 0.243912 0.243912 0.02964 0.02964 0.00491788 0.00491788 0.116533 0.116533 0.00378626 0.00378626 0.0151724 0.0151724 0.0517557 0.0517557 0.01678 0.01678 0.0385297 0.0385297 0.167825 0.167825 0.167825 0.167825 0.0612393 0.0612393 0.0682086 0.0682086 0.058771 0.058771 0.0562044 0.0562044 0.0319577 0.0319577 0.000734627 0.000734627 0.0386423 0.0386423 0.0433142 0.0433142 0.0689127 0.0689127 9.82587e-06 9.82587e-06 0.0114786 0.0114786 0.0223282 0.0223282 0.294618 0.294618 0.290967 0.290967 0.0472104 0.0472104 0.0323195 0.0323195 0.0779026 0.0779026 0.00912316 0.00912316 0.228194 0.228194 0.163718 0.163718 0.169766 0.169766 0.0314059 0.0314059 0.168313 0.168313 0.239214 0.239214 0.0210784 0.0210784 0.0740973 0.0740973 0.00639398 0.00639398 0.179895 0.179895 0.058005 0.058005 0.0316506 0.0316506 0.0658382 0.0658382 0.103012 0.103012 0.024816 0.024816 0.0161755 0.0161755 0.235504 0.235504 0.0562108 0.0562108 0.00076037 0.00076037 0.00089848 0.00089848 0.000429912 0.000429912 0.00518627 0.00518627 0.00586026 0.00586026 0.0106352 0.0106352 0.0154595 0.0154595 1.22553e-06 1.22553e-06 0.0440767 0.0440767 0.0715928 0.0715928 0.069872 0.069872 0.0450792 0.0450792 0.0150047 0.0150047 0.0844503 0.0844503 0.00663013 0.00663013 0.0168269 0.0168269 0.0488736 0.0488736 0.0898467 0.0898467 0.00480698 0.00480698 0.213087 0.213087 0.212894 0.212894 0.0619498 0.0619498 0.0992637 0.0992637 0.00261944 0.00261944 0.0239518 0.0239518 0.232981 0.232981 0.0134401 0.0134401 0.0725064 0.0725064 0 0 0.0396018 0.0396018 0.0274722 0.0274722 0.0113137 0.0113137 0.0562653 0.0562653 0.0106273 0.0106273 0.0319502 0.0319502 0.00688278 0.00688278 0.093069 0.093069 0.619137 0.619137 0.0907817 0.0907817 0.0639206 0.0639206 0.00834802 0.00834802 0.0247656 0.0247656 0.0121575 0.0121575 0.0444628 0.0444628 0.00202034 0.00202034 0.199438 0.199438 0.796839 0.796839 0.169734 0.169734 0.0274861 0.0274861 0.0175245 0.0175245 0.00554882 0.00554882 0.0663521 0.0663521 0.0399732 0.0399732 0.121011 0.121011 0.781467 0.781467 0.00164844 0.00164844 0.0156452 0.0156452 0.0341414 0.0341414 0.0387172 0.0387172 0.115973 0.115973 0.00265949 0.00265949 0.247225 0.247225 0.0655004 0.0655004 0.0342906 0.0342906 0.228209 0.228209 0.0428331 0.0428331 0.134607 0.134607 0.0285672 0.0285672 0.0819571 0.0819571 0.0164921 0.0164921 0.0340846 0.0340846 0.21546 0.21546 0.179418 0.179418 0.0689326 0.0689326 0.0148218 0.0148218 0.0203728 0.0203728 0.00261769 0.00261769 0.0111362 0.0111362 0.024136 0.024136 0.0199016 0.0199016 0.0887339 0.0887339 0.0572359 0.0572359 0.0519722 0.0519722 0.00031057 0.00031057 0.0383381 0.0383381 0.0594347 0.0594347 0.0318813 0.0318813 0.041117 0.041117 0.0231065 0.0231065 0.363029 0.363029 0.149557 0.149557 0.0162062 0.0162062 0.0216568 0.0216568 0.149405 0.149405 0.00301032 0.00301032 0.0161026 0.0161026 0.132956 0.132956 0.0303835 0.0303835 0.286209 0.286209 0.0607417 0.0607417 0.0196743 0.0196743 0.0845826 0.0845826 0.167376 0.167376 0.0156148 0.0156148 0.230666 0.230666 0.039866 0.039866 0.0307947 0.0307947 0.0161683 0.0161683 0.02248 0.02248 0.022536 0.022536 0.125984 0.125984 0.0221109 0.0221109 0 0 0.247255 0.247255 0.0639205 0.0639205 0.14121 0.14121 0.0176283 0.0176283 0.0340993 0.0340993 0.0138764 0.0138764 0.038759 0.038759 0.0956828 0.0956828 0.0555937 0.0555937 0.0146582 0.0146582 0.132166 0.132166 0.037607 0.037607 0.000302604 0.000302604 0.562672 0.562672 0.337572 0.337572 0.0180757 0.0180757 0.0262417 0.0262417 0.132091 0.132091 0.115076 0.115076 0.00628403 0.00628403 0.00330498 0.00330498 0.181953 0.181953 0.108501 0.108501 0.0228115 0.0228115 0.00333609 0.00333609 0.138976 0.138976 0.029927 0.029927 0.0636362 0.0636362 0.468638 0.468638 0.0290335 0.0290335 0.000217712 0.000217712 0.0377081 0.0377081 0.566971 0.566971 0.0857005 0.0857005 0.00630946 0.00630946 0.00508345 0.00508345 0.143214 0.143214 0.121231 0.121231 0.0639591 0.0639591 0.162325 0.162325 0.062584 0.062584 0.00210126 0.00210126 0.0149218 0.0149218 0.0159557 0.0159557 0.0673513 0.0673513 0.026326 0.026326 0.0104284 0.0104284 0.0104284 0.0104284 0.133057 0.133057 0.0213489 0.0213489 0.00628441 0.00628441 0.00985015 0.00985015 0.00218302 0.00218302 0.00220961 0.00220961 0.00253237 0.00253237 0.00221975 0.00221975 0 0 0.0248838 0.0248838 0.0428562 0.0428562 0.0428562 0.0428562 0.0545927 0.0545927 0.00892299 0.00892299 0.0102523 0.0102523 0.0676368 0.0676368 0 0 0.0174191 0.0174191 0.0112988 0.0112988 0.206907 0.206907 0.00551752 0.00551752 0.150371 0.150371 0.0967668 0.0967668 0.0532289 0.0532289 2.08306e-05 2.08306e-05 0.144541 0.144541 0.102737 0.102737 0.0118545 0.0118545 0.0233929 0.0233929 0.0375235 0.0375235 0.1539 0.1539 0.00277148 0.00277148 0.428909 0.428909 0.0517625 0.0517625 0.00464868 0.00464868 0.042593 0.042593 0.110355 0.110355 0.00894991 0.00894991 0.000191029 0.000191029 7.4292e-06 7.4292e-06 3.12014e-05 3.12014e-05 0.165384 0.165384 0.00256004 0.00256004 0.107472 0.107472 0.0158673 0.0158673 0.0725003 0.0725003 0.0668231 0.0668231 0.166709 0.166709 0.0492543 0.0492543 0.491503 0.491503 0.495403 0.495403 0.0166435 0.0166435 0.106955 0.106955 0.0397986 0.0397986 0.0314454 0.0314454 0.0425028 0.0425028 0.0164262 0.0164262 0.0298817 0.0298817 0.0243672 0.0243672 0.229861 0.229861 0.122688 0.122688 0.0372796 0.0372796 0.00360286 0.00360286 0.187217 0.187217 0.021153 0.021153 0.123504 0.123504 0.00688638 0.00688638 0.160338 0.160338 0.0217787 0.0217787 0.122337 0.122337 0.0056061 0.0056061 0.0103349 0.0103349 0.0036704 0.0036704 0.0338885 0.0338885 0.0123749 0.0123749 0.0178166 0.0178166 0.0736033 0.0736033 0.137295 0.137295 0.0489285 0.0489285 0.0545254 0.0545254 0.00516895 0.00516895 0.0695267 0.0695267 0.0859799 0.0859799 0.055362 0.055362 0.0317588 0.0317588 0.0138686 0.0138686 0.0318421 0.0318421 0.0277765 0.0277765 0.00272817 0.00272817 0.00154856 0.00154856 0.0802907 0.0802907 0.115075 0.115075 0.00930035 0.00930035 0.026865 0.026865 0.0202997 0.0202997 0.0307513 0.0307513 0.0311527 0.0311527 0.00299148 0.00299148 0.0117935 0.0117935 0.0336189 0.0336189 0.121878 0.121878 0.0156133 0.0156133 0.0274104 0.0274104 0.160469 0.160469 0.138349 0.138349 0.00825048 0.00825048 0.00499152 0.00499152 0.0284515 0.0284515 0.00182675 0.00182675 0.01639 0.01639 0.105647 0.105647 0.00476274 0.00476274 0.00547202 0.00547202 0.0463689 0.0463689 0.0402277 0.0402277 0.129564 0.129564 0.183417 0.183417 0.187044 0.187044 0.0119503 0.0119503 0.0110144 0.0110144 0.00312678 0.00312678 0.029311 0.029311 0.0661512 0.0661512 0.0388296 0.0388296 0.00265385 0.00265385 0.0497351 0.0497351 0.153728 0.153728 0.000926827 0.000926827 0.00527076 0.00527076 0.148179 0.148179 0.00436126 0.00436126 0.0151212 0.0151212 0.00665419 0.00665419 0.190475 0.190475 0.0671941 0.0671941 0.0183871 0.0183871 0.181616 0.181616 0.0687276 0.0687276 0.17041 0.17041 0.00178714 0.00178714 0.146086 0.146086 0.14355 0.14355 0.0485117 0.0485117 0.0195932 0.0195932 0.329856 0.329856 0.0577242 0.0577242 0.0205381 0.0205381 0.00462659 0.00462659 0.0246601 0.0246601 0.122309 0.122309 0.0387764 0.0387764 0.000317991 0.000317991 0.20602 0.20602 0.0253458 0.0253458 0.00820067 0.00820067 0.126634 0.126634 0.0140348 0.0140348 0.0499005 0.0499005 0.0799695 0.0799695 0.0594977 0.0594977 0.0886462 0.0886462 0.00239069 0.00239069 0.0890016 0.0890016 0.00900939 0.00900939 0.135497 0.135497 0.00286746 0.00286746 0.162451 0.162451 0.0873054 0.0873054 0.199159 0.199159 0.0579047 0.0579047 0.0124458 0.0124458 0.0150212 0.0150212 0.176695 0.176695 0.255502 0.255502 0.109668 0.109668 0.0497177 0.0497177 0.188569 0.188569 0.0282155 0.0282155 0.0933285 0.0933285 0.00278827 0.00278827 0.000313061 0.000313061 0.0908058 0.0908058 0.0186591 0.0186591 0.0111942 0.0111942 0 0 0.0490324 0.0490324 0.0339395 0.0339395 0.016969 0.016969 0.00713418 0.00713418 0.0291759 0.0291759 0.052478 0.052478 0.070712 0.070712 0.0404206 0.0404206 0.127203 0.127203 0.00409281 0.00409281 0.067035 0.067035 0.00832506 0.00832506 0.0170158 0.0170158 0.0534135 0.0534135 0.102992 0.102992 0.0228385 0.0228385 0.0244255 0.0244255 0.0598199 0.0598199 0.0364278 0.0364278 0.0416113 0.0416113 0.0178328 0.0178328 0.00291064 0.00291064 0.01052 0.01052 0.129546 0.129546 0.291725 0.291725 0.0784055 0.0784055 0.0777353 0.0777353 0.0164429 0.0164429 0.227024 0.227024 0.0748149 0.0748149 0.172344 0.172344 0.0145994 0.0145994 0.0253881 0.0253881 0.0934008 0.0934008 0.0788241 0.0788241 0.00247834 0.00247834 0.00166202 0.00166202 0.0222256 0.0222256 0.0181424 0.0181424 0.000232251 0.000232251 0.0432224 0.0432224 0.0290321 0.0290321 0.0125469 0.0125469 0.00587559 0.00587559 0.0779988 0.0779988 0.0171976 0.0171976 0.0481498 0.0481498 0.00385518 0.00385518 0.010888 0.010888 0.00126946 0.00126946 0.0253856 0.0253856 0.0117941 0.0117941 0.0235174 0.0235174 0.0856185 0.0856185 0.00802177 0.00802177 0.0769805 0.0769805 0.0520301 0.0520301 0.0238848 0.0238848 0.000160243 0.000160243 0.0543609 0.0543609 0.00135151 0.00135151 0.0117543 0.0117543 0.0348996 0.0348996 0.0342335 0.0342335 0.017046 0.017046 0.00696724 0.00696724 0.16257 0.16257 0.0191274 0.0191274 0.117367 0.117367 0.012741 0.012741 0.0202403 0.0202403 0.248264 0.248264 0.00470959 0.00470959 0.0478645 0.0478645 0.0476331 0.0476331 0.0284952 0.0284952 0.0720939 0.0720939 0.0714743 0.0714743 0.0720797 0.0720797 0.0652281 0.0652281 0.0261938 0.0261938 0.0130117 0.0130117 0.0591805 0.0591805 0.0279413 0.0279413 0.0786553 0.0786553 0.0283376 0.0283376 0.0102313 0.0102313 0.209488 0.209488 0.130125 0.130125 0.0257382 0.0257382 0.00328354 0.00328354 0.00590454 0.00590454 0.0298257 0.0298257 0.0291176 0.0291176 0.0260659 0.0260659 0.0320794 0.0320794 0.0201079 0.0201079 0.003567 0.003567 0.00337648 0.00337648 0.0164738 0.0164738 0.0750777 0.0750777 0.0750777 0.0750777 0.0905859 0.0905859 0.0573368 0.0573368 0.234313 0.234313 0.490919 0.490919 0.0219441 0.0219441 0.00587653 0.00587653 0.250497 0.250497 0.0921297 0.0921297 0.00698339 0.00698339 0.00309006 0.00309006 0.000973739 0.000973739 0.178203 0.178203 0.00431572 0.00431572 0.0823068 0.0823068 0.0202714 0.0202714 0.126621 0.126621 0.0108536 0.0108536 0.000140278 0.000140278 0.0689106 0.0689106 0.00498898 0.00498898 0.101911 0.101911 0.0762569 0.0762569 0.0445999 0.0445999 0.0749287 0.0749287 0.0401164 0.0401164 0.0312325 0.0312325 0.276351 0.276351 0.0898782 0.0898782 0.0509926 0.0509926 0.00198649 0.00198649 0.168745 0.168745 0.152004 0.152004 0.0328723 0.0328723 0.00799544 0.00799544 0.0174511 0.0174511 0.0764097 0.0764097 0.0472915 0.0472915 0.0429759 0.0429759 0.00150074 0.00150074 0.0102334 0.0102334 0.0142137 0.0142137 0.0986908 0.0986908 0.00218582 0.00218582 0.0568011 0.0568011 0.0297327 0.0297327 0.0214203 0.0214203 0.00875245 0.00875245 0.0503171 0.0503171 0.0259065 0.0259065 0.0185688 0.0185688 0.0515147 0.0515147 0.0517661 0.0517661 0.00677626 0.00677626 0.00519431 0.00519431 0.0113129 0.0113129 0.251703 0.251703 0.145398 0.145398 0.254539 0.254539 0.351813 0.351813 0.409554 0.409554 0.0410571 0.0410571 0.0179772 0.0179772 0.00200883 0.00200883 0.000347035 0.000347035 0.0307913 0.0307913 0.159763 0.159763 0.0195996 0.0195996 0.138232 0.138232 0.0795002 0.0795002 0.0177307 0.0177307 0.0259008 0.0259008 0.0674054 0.0674054 0.0966476 0.0966476 0.00145129 0.00145129 0.305437 0.305437 0.0605894 0.0605894 0.00138788 0.00138788 0.0109715 0.0109715 0.0589162 0.0589162 0.0224357 0.0224357 0.0938178 0.0938178 0.0680262 0.0680262 0.0434689 0.0434689 0.0379154 0.0379154 0.0885694 0.0885694 0.0210676 0.0210676 0.0661008 0.0661008 0.0485478 0.0485478 0.0180554 0.0180554 0.00530427 0.00530427 0.0537456 0.0537456 0.0619821 0.0619821 0.044976 0.044976 0.0507816 0.0507816 0.0108621 0.0108621 0.0218281 0.0218281 0.0948182 0.0948182 0.112368 0.112368 4.37372e-05 4.37372e-05 0.0277803 0.0277803 0 0 0.00664412 0.00664412 0.0305174 0.0305174 0.0196421 0.0196421 0.00600163 0.00600163 0.00301923 0.00301923 0.0257972 0.0257972 0.0943082 0.0943082 0.0308568 0.0308568 0.0105449 0.0105449 0.12815 0.12815 0.191099 0.191099 0.00573866 0.00573866 0.000556638 0.000556638 0.0771684 0.0771684 0.00974519 0.00974519 0.0378285 0.0378285 0.029261 0.029261 0.0248488 0.0248488 0.129977 0.129977 0.00222259 0.00222259 0.000457609 0.000457609 0.0491661 0.0491661 0.000901225 0.000901225 0.0232842 0.0232842 0.0403118 0.0403118 0.120411 0.120411 0.00245269 0.00245269 0.00212519 0.00212519 0.0175038 0.0175038 0.153083 0.153083 0.00360657 0.00360657 0.00563033 0.00563033 0.0125619 0.0125619 0.0029828 0.0029828 0.0715502 0.0715502 0.0187061 0.0187061 0.0391447 0.0391447 0.0253275 0.0253275 0.00153548 0.00153548 0.0167016 0.0167016 0.102609 0.102609 0.0965335 0.0965335 0.0562081 0.0562081 0.0488007 0.0488007 0.00703011 0.00703011 0.0884008 0.0884008 0.0115964 0.0115964 0.00359476 0.00359476 0.0446947 0.0446947 0.0217168 0.0217168 0.0813259 0.0813259 0.00481873 0.00481873 0.0316618 0.0316618 0.0444086 0.0444086 0.0222669 0.0222669 0.0598441 0.0598441 0.0243193 0.0243193 0.0710543 0.0710543 0.121692 0.121692 0.125853 0.125853 0.152143 0.152143 0.0263676 0.0263676 0.00481775 0.00481775 0.0621537 0.0621537 0.114606 0.114606 0.207304 0.207304 0.0488135 0.0488135 0.0678485 0.0678485 0.00306654 0.00306654 0.00407079 0.00407079 0.0314977 0.0314977 0.00279178 0.00279178 0.00859813 0.00859813 0.000290605 0.000290605 0.0569648 0.0569648 0.104293 0.104293 0.102847 0.102847 0.260939 0.260939 0.00871098 0.00871098 0.00341664 0.00341664 0.00656614 0.00656614 0.0730916 0.0730916 0.0487085 0.0487085 0.0178751 0.0178751 0.0405237 0.0405237 0.0112275 0.0112275 0.00830094 0.00830094 0.00399038 0.00399038 0.0640947 0.0640947 0.321011 0.321011 0.00600153 0.00600153 0.0513272 0.0513272 0.0264557 0.0264557 0.0120495 0.0120495 0.0431466 0.0431466 0.379134 0.379134 0.0629672 0.0629672 0.0323442 0.0323442 0.0741895 0.0741895 0.16133 0.16133 0.285997 0.285997 0.0820543 0.0820543 0.0603994 0.0603994 0.0417217 0.0417217 0.00958739 0.00958739 0.00276988 0.00276988 0.0459721 0.0459721 0.0376308 0.0376308 0.0137493 0.0137493 0.0369421 0.0369421 0.016833 0.016833 0.00184277 0.00184277 0.0130693 0.0130693 0.0936451 0.0936451 0.00300522 0.00300522 0.0207756 0.0207756 3.46656e-06 3.46656e-06 0.119055 0.119055 0.182974 0.182974 0.00868781 0.00868781 0.0505874 0.0505874 0.0180839 0.0180839 0.0867453 0.0867453 0.136957 0.136957 0.0125129 0.0125129 0.029666 0.029666 0.0778188 0.0778188 0.147779 0.147779 0.066363 0.066363 0.0114023 0.0114023 0.118643 0.118643 0.00132986 0.00132986 0.0264559 0.0264559 0.0376017 0.0376017 0.000623373 0.000623373 0.00079893 0.00079893 0.21477 0.21477 0.170936 0.170936 0.0173507 0.0173507 0.0396008 0.0396008 0.0702626 0.0702626 0.122829 0.122829 0.0952254 0.0952254 0.279475 0.279475 0.0313335 0.0313335 0.101882 0.101882 0.0203648 0.0203648 0.00524951 0.00524951 0.017709 0.017709 0.000192266 0.000192266 0.117724 0.117724 0.00367754 0.00367754 0.000675424 0.000675424 0.0790856 0.0790856 0.040372 0.040372 0.0603436 0.0603436 5.63191e-05 5.63191e-05 0.00539261 0.00539261 0.0130595 0.0130595 0.000702333 0.000702333 0.0625876 0.0625876 0.0903917 0.0903917 0.0808515 0.0808515 0.000986173 0.000986173 0.00202123 0.00202123 0.00150327 0.00150327 0.00280326 0.00280326 0.000107782 0.000107782 0 0 0 0 0.0210556 0.0210556 0.0195366 0.0195366 0.0150228 0.0150228 0.0123861 0.0123861 0.00484473 0.00484473 0.00978502 0.00978502 0.0515526 0.0515526 0.0184658 0.0184658 0.0575496 0.0575496 0.0331935 0.0331935 0.0161027 0.0161027 0.0661316 0.0661316 0.00752702 0.00752702 0.000871839 0.000871839 0.0576554 0.0576554 0.0603743 0.0603743 0.00860695 0.00860695 0.00135854 0.00135854 0.00158923 0.00158923 0.114345 0.114345 0.0441056 0.0441056 0.0311695 0.0311695 0.0526213 0.0526213 0.00906121 0.00906121 0.00158722 0.00158722 0.0764672 0.0764672 0.0201669 0.0201669 0 0 0.00159275 0.00159275 0.0146281 0.0146281 0.0542956 0.0542956 0.0784462 0.0784462 0.115731 0.115731 0.0457088 0.0457088 0.000890746 0.000890746 0.00823552 0.00823552 0.621496 0.621496 0.00189983 0.00189983 0.271831 0.271831 0.0320848 0.0320848 0.18525 0.18525 0.0040236 0.0040236 0.00230688 0.00230688 0.018258 0.018258 0.271437 0.271437 0.107971 0.107971 0.466199 0.466199 0.145156 0.145156 0.0404262 0.0404262 0.00083275 0.00083275 0.012115 0.012115 0.00495206 0.00495206 0.000238441 0.000238441 0.0225316 0.0225316 0.0375347 0.0375347 0.024654 0.024654 0.0534839 0.0534839 0.267648 0.267648 0.0462332 0.0462332 0.0205351 0.0205351 0.268852 0.268852 0.00376241 0.00376241 0.00114303 0.00114303 0.000168079 0.000168079 0.0019909 0.0019909 0.00355606 0.00355606 0.00203131 0.00203131 0.00992367 0.00992367 0.000167549 0.000167549 0.013203 0.013203 0.102495 0.102495 0.0510386 0.0510386 0.168427 0.168427 0.244731 0.244731 0.208308 0.208308 0.0048157 0.0048157 0.0103668 0.0103668 0.0343466 0.0343466 0.0130125 0.0130125 0.165205 0.165205 0.0667736 0.0667736 0.000629476 0.000629476 0.0609501 0.0609501 0.0658851 0.0658851 0.0331106 0.0331106 0.0291435 0.0291435 0.052329 0.052329 0.0379375 0.0379375 0.00114137 0.00114137 0