<?xml version="1.0"?>
<VTKFile type="PolyData" version="0.1" byte_order="LittleEndian" >
<PolyData>
<Piece NumberOfPoints="24902" NumberOfVerts="0" NumberOfLines="12451" NumberOfStrips="0" NumberOfPolys="0">
<Points>
<DataArray type="Float32" NumberOfComponents="3" format="ascii">
0.00468141 0.145821 0.213142 0.00766924 0.153252 0.213202 0.00468141 0.145821 0.213142 -0.000200019 0.144564 0.225781 0.00674926 0.166334 0.210921 -0.000200046 0.154602 0.211613 0.0325239 0.237947 0.210045 0.029694 0.242175 0.219101 0.1585 0.169591 0.210436 0.1602 0.166208 0.197438 0.1585 0.169591 0.210436 0.1602 0.182019 0.205345 0.0178112 0.209225 0.210888 0.0134115 0.217985 0.222203 0.0178112 0.209225 0.210888 0.0205601 0.218709 0.211109 0.145653 0.176818 0.210633 0.1585 0.169591 0.210436 0.145653 0.176818 0.210633 0.145328 0.192951 0.213772 0.00601169 0.232594 0.21178 0.00951613 0.237362 0.212234 0.00601169 0.232594 0.21178 0.00951613 0.237362 0.212234 0.00601169 0.232594 0.21178 0.00951613 0.237362 0.212234 0.00601169 0.232594 0.21178 0.0080128 0.216846 0.210396 0.00601169 0.232594 0.21178 -0.000200035 0.224501 0.202731 0.136501 0.130969 0.212136 0.145767 0.120404 0.215322 0.0494176 0.228831 0.210481 0.0325239 0.237947 0.210045 0.0494176 0.228831 0.210481 0.0632761 0.231316 0.222229 0.0494176 0.228831 0.210481 0.0633269 0.239234 0.213052 0.084267 0.208265 0.212736 0.0734568 0.21157 0.221048 0.122577 0.235382 0.220877 0.112665 0.242963 0.234893 0.122577 0.235382 0.220877 0.133179 0.241384 0.211552 0.136143 0.224502 0.222499 0.143118 0.223267 0.236723 0.136143 0.224502 0.222499 0.148179 0.23037 0.234091 0.136143 0.224502 0.222499 0.142212 0.235945 0.223271 0.054698 0.239593 0.211418 0.0498132 0.245784 0.220006 0.054698 0.239593 0.211418 0.0498132 0.245784 0.220006 0.054698 0.239593 0.211418 0.0633269 0.239234 0.213052 0.051091 0.216288 0.211506 0.0678405 0.223157 0.217184 0.116114 0.137816 0.210407 0.123005 0.152604 0.21323 0.116114 0.137816 0.210407 0.106669 0.152637 0.211937 0.0502717 0.233697 0.212196 0.054698 0.239593 0.211418 0.0502717 0.233697 0.212196 0.054698 0.239593 0.211418 0.0502717 0.233697 0.212196 0.0647917 0.238802 0.217126 0.0502717 0.233697 0.212196 0.0633269 0.239234 0.213052 0.0678405 0.223157 0.217184 0.0622407 0.240826 0.229438 0.10263 0.220479 0.213926 0.112063 0.224773 0.218696 0.0838699 0.232518 0.23054 0.0783647 0.241928 0.228409 0.0210007 0.151375 0.2103 0.028748 0.155106 0.23024 0.0922122 0.167253 0.213405 0.0784528 0.18169 0.2127 0.0249863 0.189198 0.21248 0.0308351 0.193531 0.221831 0.0964977 0.131528 0.211407 0.106669 0.152637 0.211937 0.00149994 0.233197 0.211153 0.00601169 0.232594 0.21178 0.00149994 0.233197 0.211153 -0.000200032 0.220402 0.207074 0.00149994 0.233197 0.211153 -0.000200031 0.235529 0.197927 0.0633269 0.239234 0.213052 0.05493 0.243179 0.237206 0.0633269 0.239234 0.213052 0.0696831 0.2502 0.218359 0.115151 0.139641 0.214345 0.116114 0.137816 0.210407 0.115151 0.139641 0.214345 0.106669 0.152637 0.211937 0.0199649 0.217167 0.215163 0.0205601 0.218709 0.211109 0.00951995 0.235037 0.220564 0.00601169 0.232594 0.21178 0.00951995 0.235037 0.220564 0.00601169 0.232594 0.21178 0.00951995 0.235037 0.220564 0.00601169 0.232594 0.21178 0.00951995 0.235037 0.220564 0.00951613 0.237362 0.212234 0.00951995 0.235037 0.220564 0.00951613 0.237362 0.212234 0.00951995 0.235037 0.220564 0.00951613 0.237362 0.212234 0.00951995 0.235037 0.220564 0.0080128 0.216846 0.210396 0.00951995 0.235037 0.220564 -0.000200018 0.230525 0.229122 0.102729 0.18748 0.218494 0.116187 0.187557 0.223045 0.150774 0.138014 0.211499 0.155383 0.129799 0.21222 0.150774 0.138014 0.211499 0.147776 0.150492 0.218324 0.150774 0.138014 0.211499 0.152002 0.154766 0.213364 0.150774 0.138014 0.211499 0.1602 0.144523 0.219027 0.100435 0.172085 0.215882 0.0922122 0.167253 0.213405 0.100435 0.172085 0.215882 0.0922122 0.167253 0.213405 0.0135909 0.164547 0.214058 0.00674926 0.166334 0.210921 0.0135909 0.164547 0.214058 0.0351622 0.169715 0.219491 0.110356 0.22985 0.223608 0.111112 0.230151 0.232704 0.110356 0.22985 0.223608 0.117238 0.235997 0.216918 0.110356 0.22985 0.223608 0.117238 0.235997 0.216918 0.110356 0.22985 0.223608 0.117238 0.235997 0.216918 0.110356 0.22985 0.223608 0.122689 0.235747 0.233844 0.110356 0.22985 0.223608 0.113102 0.227363 0.228305 0.110356 0.22985 0.223608 0.112063 0.224773 0.218696 0.110356 0.22985 0.223608 0.113474 0.236533 0.210939 0.110356 0.22985 0.223608 0.113474 0.236533 0.210939 0.110356 0.22985 0.223608 0.113474 0.236533 0.210939 0.110356 0.22985 0.223608 0.110031 0.227915 0.245235 0.110235 0.203546 0.216164 0.102729 0.18748 0.218494 0.110235 0.203546 0.216164 0.112773 0.184453 0.216439 0.110235 0.203546 0.216164 0.129856 0.18927 0.215495 0.110235 0.203546 0.216164 0.123862 0.206892 0.218679 0.130807 0.226135 0.221334 0.136143 0.224502 0.222499 0.130807 0.226135 0.221334 0.122577 0.235382 0.220877 0.130807 0.226135 0.221334 0.144779 0.232598 0.230632 0.0784528 0.18169 0.2127 0.0906408 0.184387 0.217318 0.0858323 0.161333 0.212889 0.0856725 0.151712 0.212543 0.0163652 0.238807 0.218663 0.00951995 0.235037 0.220564 0.0163652 0.238807 0.218663 0.0132184 0.2502 0.211636 0.0796418 0.136038 0.215365 0.096212 0.129231 0.223357 0.100661 0.133335 0.213701 0.0964977 0.131528 0.211407 0.100661 0.133335 0.213701 0.0964977 0.131528 0.211407 0.100661 0.133335 0.213701 0.106669 0.152637 0.211937 0.100661 0.133335 0.213701 0.114602 0.143295 0.217469 0.0443514 0.15351 0.211471 0.0455755 0.155041 0.214494 0.0443514 0.15351 0.211471 0.0455755 0.155041 0.214494 0.0254495 0.195216 0.21469 0.0249863 0.189198 0.21248 0.0254495 0.195216 0.21469 0.0249863 0.189198 0.21248 0.0254495 0.195216 0.21469 0.0249863 0.189198 0.21248 0.0254495 0.195216 0.21469 0.0178112 0.209225 0.210888 0.0254495 0.195216 0.21469 0.0205601 0.218709 0.211109 0.0254495 0.195216 0.21469 0.0394655 0.196596 0.213768 0.0254495 0.195216 0.21469 0.042861 0.187003 0.223747 0.0387609 0.22987 0.212971 0.0325239 0.237947 0.210045 0.0387609 0.22987 0.212971 0.029694 0.242175 0.219101 0.123862 0.206892 0.218679 0.114835 0.210126 0.224888 0.123862 0.206892 0.218679 0.123208 0.216547 0.218437 0.123862 0.206892 0.218679 0.125075 0.219859 0.213661 0.123862 0.206892 0.218679 0.135071 0.219275 0.22515 0.113474 0.236533 0.210939 0.120312 0.242433 0.210976 0.135787 0.141087 0.213919 0.136501 0.130969 0.212136 0.135787 0.141087 0.213919 0.136501 0.130969 0.212136 0.135787 0.141087 0.213919 0.147776 0.150492 0.218324 0.135787 0.141087 0.213919 0.144028 0.15755 0.213119 0.135787 0.141087 0.213919 0.128837 0.159778 0.210211 0.135787 0.141087 0.213919 0.146473 0.134503 0.220715 0.15198 0.203584 0.211189 0.149146 0.211432 0.220298 0.15198 0.203584 0.211189 0.151885 0.211187 0.214853 0.114602 0.143295 0.217469 0.115151 0.139641 0.214345 0.114602 0.143295 0.217469 0.115151 0.139641 0.214345 0.0241354 0.141724 0.214495 0.028748 0.155106 0.23024 0.0241354 0.141724 0.214495 0.019386 0.151441 0.219658 0.0241354 0.141724 0.214495 0.0184117 0.150425 0.215307 0.0241354 0.141724 0.214495 0.0210007 0.151375 0.2103 0.0241354 0.141724 0.214495 0.0459179 0.146964 0.221426 0.0241354 0.141724 0.214495 0.0421674 0.13874 0.214415 0.142212 0.235945 0.223271 0.139937 0.220803 0.210947 0.142212 0.235945 0.223271 0.140261 0.241513 0.227098 0.127208 0.127961 0.215364 0.135787 0.141087 0.213919 0.127208 0.127961 0.215364 0.115151 0.139641 0.214345 0.127208 0.127961 0.215364 0.116114 0.137816 0.210407 0.127208 0.127961 0.215364 0.136501 0.130969 0.212136 0.127208 0.127961 0.215364 0.136501 0.130969 0.212136 0.0675868 0.148852 0.213764 0.0697903 0.140722 0.210431 0.0675868 0.148852 0.213764 0.0697903 0.140722 0.210431 0.0675868 0.148852 0.213764 0.0793615 0.157512 0.219945 0.00766924 0.153252 0.213202 0.0135909 0.164547 0.214058 0.147482 0.226093 0.217004 0.142212 0.235945 0.223271 0.147482 0.226093 0.217004 0.139937 0.220803 0.210947 0.145328 0.192951 0.213772 0.130332 0.210434 0.220924 0.057423 0.140983 0.21338 0.0675868 0.148852 0.213764 0.057423 0.140983 0.21338 0.0443514 0.15351 0.211471 0.126771 0.235352 0.216438 0.122577 0.235382 0.220877 0.126771 0.235352 0.216438 0.140261 0.241513 0.227098 0.126771 0.235352 0.216438 0.147375 0.23439 0.211259 0.151885 0.211187 0.214853 0.1602 0.202787 0.20796 0.151885 0.211187 0.214853 0.1602 0.220426 0.209131 0.129325 0.186052 0.212241 0.145328 0.192951 0.213772 0.136896 0.236506 0.216208 0.126771 0.235352 0.216438 0.136896 0.236506 0.216208 0.126771 0.235352 0.216438 0.136896 0.236506 0.216208 0.136143 0.224502 0.222499 0.136896 0.236506 0.216208 0.133179 0.241384 0.211552 0.136896 0.236506 0.216208 0.133179 0.241384 0.211552 0.136896 0.236506 0.216208 0.147482 0.226093 0.217004 0.136896 0.236506 0.216208 0.142212 0.235945 0.223271 0.136896 0.236506 0.216208 0.142212 0.235945 0.223271 0.136896 0.236506 0.216208 0.139937 0.220803 0.210947 0.0267874 0.216205 0.216178 0.0199649 0.217167 0.215163 0.0267874 0.216205 0.216178 0.0199649 0.217167 0.215163 0.0267874 0.216205 0.216178 0.0313151 0.215291 0.218021 0.0267874 0.216205 0.216178 0.0313151 0.215291 0.218021 0.0267874 0.216205 0.216178 0.0332777 0.215091 0.22503 0.0401796 0.228286 0.216737 0.0387609 0.22987 0.212971 0.0401796 0.228286 0.216737 0.0387609 0.22987 0.212971 0.11038 0.168828 0.213297 0.106669 0.152637 0.211937 0.11038 0.168828 0.213297 0.0922122 0.167253 0.213405 0.11038 0.168828 0.213297 0.112773 0.184453 0.216439 0.11038 0.168828 0.213297 0.112415 0.166262 0.224123 0.0276042 0.168072 0.23183 0.023463 0.184866 0.230485 0.0276042 0.168072 0.23183 0.0219323 0.189252 0.23584 0.0276042 0.168072 0.23183 0.02856 0.172956 0.228558 0.0276042 0.168072 0.23183 0.02856 0.172956 0.228558 0.0276042 0.168072 0.23183 0.028748 0.155106 0.23024 0.0276042 0.168072 0.23183 0.0343888 0.159452 0.239861 0.0276042 0.168072 0.23183 0.0344271 0.168445 0.234713 0.0276042 0.168072 0.23183 0.0463828 0.170616 0.242359 0.0276042 0.168072 0.23183 0.0275268 0.166262 0.244533 0.0184117 0.150425 0.215307 0.0135909 0.164547 0.214058
[...]
<PointData Scalars="F_N">
<DataArray type="Float32" Name="F_N" format="ascii">
0.000958578 0.000958578 0.000133979 0.000133979 0.000186863 0.000186863 0.0279052 0.0279052 0 0 0 0 0.0967195 0.0967195 0.0110419 0.0110419 0.0127294 0.0127294 0.0570166 0.0570166 0.185919 0.185919 0.175544 0.175544 0.0340387 0.0340387 0.00102648 0.00102648 0.0143106 0.0143106 0.0114017 0.0114017 0.0849161 0.0849161 0.0267953 0.0267953 0.0211362 0.0211362 0.0359868 0.0359868 0.00179827 0.00179827 0.037913 0.037913 0.00946055 0.00946055 0.0120051 0.0120051 0.0149743 0.0149743 0.00171827 0.00171827 0.00306436 0.00306436 0.126075 0.126075 0.0304419 0.0304419 0.0613572 0.0613572 0.0406267 0.0406267 0.16035 0.16035 0.00722151 0.00722151 0.0190186 0.0190186 0.00131326 0.00131326 0.0236605 0.0236605 0.0222465 0.0222465 0.00963326 0.00963326 0.0187607 0.0187607 0.00272538 0.00272538 0.0424542 0.0424542 0.000494792 0.000494792 0.00656045 0.00656045 0.000373528 0.000373528 3.53875e-05 3.53875e-05 0.00255577 0.00255577 3.56045e-05 3.56045e-05 0.0833103 0.0833103 0.040987 0.040987 0.0880617 0.0880617 0.171942 0.171942 0.00993765 0.00993765 0.00506854 0.00506854 0.00524389 0.00524389 0.0306868 0.0306868 0.031724 0.031724 0.00159683 0.00159683 0.00737231 0.00737231 0.0184928 0.0184928 0.000728016 0.000728016 0.0155035 0.0155035 0.00146564 0.00146564 0 0 0.081136 0.081136 0.129968 0.129968 0.00654451 0.00654451 0.00811638 0.00811638 0.0166099 0.0166099 0.0139931 0.0139931 0.000242855 0.000242855 0.00762529 0.00762529 0.0912201 0.0912201 0.0568287 0.0568287 0.0182284 0.0182284 0.272072 0.272072 0.2576 0.2576 0.211195 0.211195 0.0129283 0.0129283 0.00938349 0.00938349 0.169991 0.169991 0.00394348 0.00394348 0.0181437 0.0181437 0.000537422 0.000537422 0.0190623 0.0190623 0.00845593 0.00845593 0.00178298 0.00178298 0.00600238 0.00600238 0.0370952 0.0370952 0.012286 0.012286 0.00472665 0.00472665 0.122921 0.122921 0.122471 0.122471 0.0349529 0.0349529 0.00645236 0.00645236 0.0335279 0.0335279 0.131522 0.131522 0.487701 0.487701 0.0123126 0.0123126 0.0458139 0.0458139 0.00102513 0.00102513 0.00884526 0.00884526 0.205181 0.205181 0.000246165 0.000246165 0.01577 0.01577 0.00686611 0.00686611 0.00173948 0.00173948 0.00394929 0.00394929 0.000818822 0.000818822 0.000411363 0.000411363 0.000853388 0.000853388 0.235515 0.235515 0.483784 0.483784 0.055643 0.055643 0.0023325 0.0023325 0.000644207 0.000644207 0.00661951 0.00661951 0.0437559 0.0437559 0.0711256 0.0711256 0.00885113 0.00885113 0.22927 0.22927 0.0154557 0.0154557 0.0112922 0.0112922 0.000696592 0.000696592 0.0395675 0.0395675 0.0358646 0.0358646 0.0381337 0.0381337 0.00342028 0.00342028 0.0378966 0.0378966 0.197492 0.197492 0.00287491 0.00287491 0.0698767 0.0698767 0.0134583 0.0134583 0.117059 0.117059 0.154379 0.154379 2.75423e-05 2.75423e-05 0.0698904 0.0698904 0.0197728 0.0197728 0.0235304 0.0235304 0.0124948 0.0124948 0.00375962 0.00375962 0.0232669 0.0232669 0.0149486 0.0149486 0.00254095 0.00254095 0.0264684 0.0264684 0.0406132 0.0406132 0 0 0 0 0.00193366 0.00193366 0.0551878 0.0551878 0.0671817 0.0671817 0.0326543 0.0326543 0.195099 0.195099 0.0394579 0.0394579 0.00905341 0.00905341 0.017721 0.017721 0.089818 0.089818 0.022298 0.022298 0.0675254 0.0675254 0.0697639 0.0697639 0.0558289 0.0558289 0.114645 0.114645 0.027312 0.027312 0.151129 0.151129 0.0240335 0.0240335 0.0116937 0.0116937 8.32681e-05 8.32681e-05 0.117049 0.117049 0.0156573 0.0156573 0.0127731 0.0127731 0.0580025 0.0580025 0.225037 0.225037 0.100677 0.100677 0.0144748 0.0144748 0.0120317 0.0120317 0.0131984 0.0131984 0.0259943 0.0259943 0.0650773 0.0650773 0.0110269 0.0110269 0.020718 0.020718 0.00311171 0.00311171 0.269139 0.269139 0.0188698 0.0188698 0.00415931 0.00415931 0.0280594 0.0280594 0.0892272 0.0892272 0.0682762 0.0682762 0.0222287 0.0222287 0.00112786 0.00112786 0.0195849 0.0195849 0.0279131 0.0279131 0.0155368 0.0155368 0.0162513 0.0162513 0.00160752 0.00160752 0.0472456 0.0472456 0.0880074 0.0880074 0.00119002 0.00119002 0.00451232 0.00451232 0.00179652 0.00179652 0.00381867 0.00381867 0.00421838 0.00421838 0.00505835 0.00505835 0.000210013 0.000210013 0.000186689 0.000186689 0.0976901 0.0976901 0.0315534 0.0315534 0.00966515 0.00966515 0.0123484 0.0123484 0.0336356 0.0336356 0.00390465 0.00390465 0.127429 0.127429 0.0815082 0.0815082 0.0096277 0.0096277 0.080157 0.080157 0.00108895 0.00108895 0.0196777 0.0196777 0.00554037 0.00554037 0.0583772 0.0583772 0.0006865 0.0006865 0.00390382 0.00390382 0.00122756 0.00122756 0.0114512 0.0114512 0.0495344 0.0495344 0.000447399 0.000447399 0.00675917 0.00675917 0.00194564 0.00194564 0.0298963 0.0298963 9.11398e-05 9.11398e-05 0.00824065 0.00824065 0.0339154 0.0339154 0.0308757 0.0308757 0.0266016 0.0266016 0.0206931 0.0206931 0.00687272 0.00687272 0.0291074 0.0291074 0.00723135 0.00723135 0.0273598 0.0273598 0.0585439 0.0585439 0.444163 0.444163 0.0210801 0.0210801 0.173738 0.173738 0.00459753 0.00459753 0.00201105 0.00201105 0.0462232 0.0462232 0.069459 0.069459 0.0910436 0.0910436 0.00406069 0.00406069 0.0007403 0.0007403 0.0118171 0.0118171 0.0380205 0.0380205 0.144027 0.144027 0.0234551 0.0234551 0.138172 0.138172 0.0385095 0.0385095 0.0744365 0.0744365 0.149262 0.149262 0.0046199 0.0046199 0.0231095 0.0231095 0.00936721 0.00936721 0.00482739 0.00482739 0.0102548 0.0102548 0.11216 0.11216 0.0112613 0.0112613 0.0626197 0.0626197 0.00278352 0.00278352 0.00175788 0.00175788 0.00924409 0.00924409 0.00295769 0.00295769 0.000627792 0.000627792 3.61461e-05 3.61461e-05 0.00138295 0.00138295 0.00120917 0.00120917 0 0 0.00026114 0.00026114 0.00333492 0.00333492 0.00586731 0.00586731 0.000228596 0.000228596 0.000642966 0.000642966 0.00261702 0.00261702 0.0796019 0.0796019 0.0410254 0.0410254 0.0293833 0.0293833 0.0205283 0.0205283 0.0104524 0.0104524 0.0090457 0.0090457 0.0711125 0.0711125 0.0204561 0.0204561 0.149579 0.149579 0.0541513 0.0541513 0.036747 0.036747 0.00226541 0.00226541 0.000488354 0.000488354 0.121855 0.121855 0.00666872 0.00666872 0.00615978 0.00615978 0.00116361 0.00116361 0.00547378 0.00547378 0.0266658 0.0266658 0.112056 0.112056 7.5258e-05 7.5258e-05 0.000855994 0.000855994 0.0044782 0.0044782 0.00175205 0.00175205 0.0453775 0.0453775 0.00645012 0.00645012 0.0160023 0.0160023 0.0470354 0.0470354 0.0299081 0.0299081 0.0480715 0.0480715 0.0132047 0.0132047 0.00195529 0.00195529 0.0447452 0.0447452 0.000108276 0.000108276 0.0228272 0.0228272 0.00263846 0.00263846 0.353036 0.353036 0.0746458 0.0746458 0.00379992 0.00379992 0.0164948 0.0164948 0.00269481 0.00269481 2.36963e-05 2.36963e-05 0.0566999 0.0566999 0.0293237 0.0293237 0.00224272 0.00224272 0.00779995 0.00779995 0.0666745 0.0666745 0.0326789 0.0326789 0.0958908 0.0958908 0.284233 0.284233 0.175232 0.175232 0.00555386 0.00555386 0 0 0.0114271 0.0114271 0.0101869 0.0101869 0.0456751 0.0456751 0.0121848 0.0121848 0.0231399 0.0231399 0.0353084 0.0353084 0.0224617 0.0224617 0.108629 0.108629 0.000101515 0.000101515 0 0 0.028692 0.028692 0.015241 0.015241 0.0432749 0.0432749 0.00762328 0.00762328 0.0304606 0.0304606 2.27549e-05 2.27549e-05 0 0 0.0506514 0.0506514 0.00615572 0.00615572 0.00585887 0.00585887 0.0239499 0.0239499 0.196956 0.196956 0.208029 0.208029 0.00274557 0.00274557 0.0233804 0.0233804 0.0275621 0.0275621 0.0868345 0.0868345 0.0322902 0.0322902 0.0862149 0.0862149 0.0027382 0.0027382 0.00525673 0.00525673 0.000407834 0.000407834 0.0106031 0.0106031 0.00277407 0.00277407 0.105927 0.105927 0.0137038 0.0137038 0.0590665 0.0590665 0.0590665 0.0590665 0.00019009 0.00019009 0.0418694 0.0418694 0.0159721 0.0159721 0.0485834 0.0485834 0.000351588 0.000351588 0.00516433 0.00516433 0.0134612 0.0134612 0.00202558 0.00202558 0.0804516 0.0804516 0.152688 0.152688 0.0249834 0.0249834 0.0126724 0.0126724 0.0107635 0.0107635 0.00867672 0.00867672 0.0139621 0.0139621 0.0463365 0.0463365 0.181706 0.181706 0.148599 0.148599 0.00257403 0.00257403 0.022214 0.022214 0.00015557 0.00015557 0.0252235 0.0252235 0.00430053 0.00430053 0.00295027 0.00295027 0.00596433 0.00596433 0.0089954 0.0089954 0.132713 0.132713 0.0537154 0.0537154 0.185124 0.185124 0.0190437 0.0190437 0.0291306 0.0291306 0.0426292 0.0426292 0.0274445 0.0274445 0.0993254 0.0993254 0.0177504 0.0177504 0.124586 0.124586 0.0173486 0.0173486 0.0122267 0.0122267 0.0196046 0.0196046 0.0363365 0.0363365 0.00522444 0.00522444 0.000232394 0.000232394 0.0405127 0.0405127 0.01183 0.01183 0.0080993 0.0080993 0.0093206 0.0093206 0.00830514 0.00830514 0.00855077 0.00855077 0.0260175 0.0260175 0.00350154 0.00350154 0.00537227 0.00537227 0.0187351 0.0187351 0.00789139 0.00789139 0.0214622 0.0214622 0.0355722 0.0355722 0.00372196 0.00372196 0.0109191 0.0109191 0.0148648 0.0148648 0.0187967 0.0187967 0.00761451 0.00761451 0.00417136 0.00417136 0.00965555 0.00965555 0.0440729 0.0440729 0.00717217 0.00717217 0.0216525 0.0216525 0.00220168 0.00220168 0.101465 0.101465 0.047348 0.047348 0.145314 0.145314 0.118113 0.118113 0.0197342 0.0197342 0.0352216 0.0352216 0.0436051 0.0436051 0.159218 0.159218 0.0725782 0.0725782 0.0535353 0.0535353 0.0213876 0.0213876 0.0180979 0.0180979 0.000101729 0.000101729 0.00647179 0.00647179 0.0270559 0.0270559 0.00527718 0.00527718 0.0177178 0.0177178 0.000999307 0.000999307 0.00334337 0.00334337 0.00527482 0.00527482 0.00900727 0.00900727 0 0 0.0106283 0.0106283 0.00643684 0.00643684 0.00134455 0.00134455 0.00429804 0.00429804 0.00509341 0.00509341 0.0570396 0.0570396 0.0286551 0.0286551 0.043498 0.043498 0.00400684 0.00400684 0.0271023 0.0271023 0.0117082 0.0117082 0.00733895 0.00733895 0.149245 0.149245 0.0412075 0.0412075 0.144472 0.144472 0.0301999 0.0301999 0.00101933 0.00101933 0.0259466 0.0259466 0.0225207 0.0225207 0.0257464 0.0257464 0.013165 0.013165 0.0344473 0.0344473 0.0255107 0.0255107 0.0335023 0.0335023 0.0511028 0.0511028 0.00700952 0.00700952 0.0364259 0.0364259 0.072814 0.072814 0.000456267 0.000456267 0.011661 0.011661 0.000706083 0.000706083 0.0184525 0.0184525 0.0262612 0.0262612 0.00278083 0.00278083 0.020916 0.020916 0.0185216 0.0185216 0.0126034 0.0126034 0.103289 0.103289 0.0156785 0.0156785 0.00110585 0.00110585 0.0160596 0.0160596 0.0040621 0.0040621 0.0257734 0.0257734 0.0289762 0.0289762 0.0377584 0.0377584 0.0179222 0.0179222 0.0251313 0.0251313 0.069472 0.069472 0.0011014 0.0011014 0.0239667 0.0239667 0.00615539 0.00615539 0.0477553 0.0477553 0.0454139 0.0454139 0.0782895 0.0782895 0.117542 0.117542 0.00178028 0.00178028 0.0148115 0.0148115 0.0183923 0.0183923 0.0534818 0.0534818 0.00018684 0.00018684 0.0034312 0.0034312 0.0297076 0.0297076 0.00564182 0.00564182 0.0699231 0.0699231 0.00252937 0.00252937 0.0812043 0.0812043 0.0175216 0.0175216 0.0561236 0.0561236 0.00279873 0.00279873 0.0066141 0.0066141 0.0537679 0.0537679 0.00444951 0.00444951 0.0127267 0.0127267 0.617997 0.617997 0.00655864 0.00655864 0.010046 0.010046 0.0505875 0.0505875 0.0390592 0.0390592 0.0601775 0.0601775 0.0257113 0.0257113 0.103133 0.103133 0.0659184 0.0659184 0.0468041 0.0468041 0.00390337 0.00390337 0.000356654 0.000356654 0.00394554 0.00394554 0.000144348 0.000144348 0.0393089 0.0393089 0.0104835 0.0104835 0 0 0.054502 0.054502 0.00752921 0.00752921 0.00466744 0.00466744 0.00555147 0.00555147 0.00706374 0.00706374 0.026602 0.026602 0.0487124 0.0487124 0.00866472 0.00866472 0.0911176 0.0911176 0.00451409 0.00451409 0.344179 0.344179 0.036899 0.036899 0.0707888 0.0707888 0.0210223 0.0210223 0.168311 0.168311 0.11242 0.11242 0.0500268 0.0500268 0.0897237 0.0897237 0.00707482 0.00707482 0.00235082 0.00235082 0.0155855 0.0155855 0.00465822 0.00465822 0.0106272 0.0106272 0.00408384 0.00408384 0.131688 0.131688 0.0036298 0.0036298 0.0517548 0.0517548 0.00830937 0.00830937 0.00333427 0.00333427 0.00258663 0.00258663 0.000854193 0.000854193 0.0372098 0.0372098 0.00724517 0.00724517 3.46396e-05 3.46396e-05 0.185292 0.185292 0.0283527 0.0283527 0.0908045 0.0908045 0.280815 0.280815 0.280692 0.280692 0.645619 0.645619 0.0576229 0.0576229 0.103678 0.103678 0.00614034 0.00614034 0.0969261 0.0969261 0.0966096 0.0966096 0.0147305 0.0147305 0.00816017 0.00816017 0.055519 0.055519 0.054367 0.054367 0.0904986 0.0904986 0.0557275 0.0557275 0.00147541 0.00147541 0.0193101 0.0193101 0.0976313 0.0976313 0.00205218 0.00205218 0.0416691 0.0416691 0.00698677 0.00698677 0.00755208 0.00755208 0.000376773 0.000376773 0.0336233 0.0336233 0.00223907 0.00223907 0.022042 0.022042 0.0178986 0.0178986 0.0666546 0.0666546 0.0615034 0.0615034 0.0139833 0.0139833 0.00937922 0.00937922 0.0510091 0.0510091 0.00676315 0.00676315 0.00700429 0.00700429 0.0307921 0.0307921 0.0111285 0.0111285 0.00316542 0.00316542 0.0036858 0.0036858 0.0457251 0.0457251 0.238219 0.238219 0.0481968 0.0481968 0.0231736 0.0231736 0.113894 0.113894 0.0132813 0.0132813 0.00548733 0.00548733 0.0480413 0.0480413 8.43072e-05 8.43072e-05 0.0389377 0.0389377 0.0764205 0.0764205 0.0403033 0.0403033 0.0113083 0.0113083 0.00201727 0.00201727 0.00243409 0.00243409 0.0177824 0.0177824 0.0155878 0.0155878 0.0497876 0.0497876 0.00388951 0.00388951 0.0224608 0.0224608 0.00285601 0.00285601 0.0110344 0.0110344 0.0667365 0.0667365 0.0468433 0.0468433 0.0156925 0.0156925 0.00142368 0.00142368 0.0139445 0.0139445 0.00899546 0.00899546 0.0780918 0.0780918 0.0965656 0.0965656 0.0125662 0.0125662 0.0172397 0.0172397 0.0809983 0.0809983 0.123692 0.123692 0.0243203 0.0243203 0.0872037 0.0872037 0.0107999 0.0107999 0.175078 0.175078 0.0053368 0.0053368 0.0725152 0.0725152 0.00334729 0.00334729 0.0249148 0.0249148 0.089362 0.089362 0.0957995 0.0957995 0.156669 0.156669 0.295201 0.295201 0.0366951 0.0366951 0.147111 0.147111 0.156593 0.156593 0.152272 0.152272 0.148711 0.148711 0.0038064 0.0038064 0.000302515 0.000302515 0.0714883 0.0714883 0.0106696 0.0106696 0.0249019 0.0249019 0.0139194 0.0139194 0.00663981 0.00663981 0.000111645 0.000111645 0.00231783 0.00231783 0.000141973 0.000141973 0.00413587 0.00413587 0.00180308 0.00180308 0.0101613 0.0101613 0.0140601 0.0140601 0.00723849 0.00723849 5.46243e-05 5.46243e-05 0.0330252 0.0330252 0.0366601 0.0366601 0.00403919 0.00403919 0.00151733 0.00151733 0.081203 0.081203 0.0850692 0.0850692 0.175952 0.175952 0.05024 0.05024 0.0207569 0.0207569 0.0246131 0.0246131 0.0101005 0.0101005 0.0448866 0.0448866 0.107049 0.107049 0.363698 0.363698 0.0393014 0.0393014 0.00534013 0.00534013 0.0709542 0.0709542 0.0689784 0.0689784 0.0767986 0.0767986 0.0060414 0.0060414 0.0162859 0.0162859 0.0127984 0.0127984 0.0122185 0.0122185 0.0918316 0.0918316 0.000555574 0.000555574 0.0206993 0.0206993 0.0104491 0.0104491 0.068791 0.068791 0.00967255 0.00967255 0.0388002 0.0388002 0.0159504 0.0159504 0.00727088 0.00727088 0.0453911 0.0453911 0.00387493 0.00387493 0.0202722 0.0202722 0.0977064 0.0977064 0.10387 0.10387 0.0396009 0.0396009 0.0472479 0.0472479 0.0146147 0.0146147 0.0966641 0.0966641 0.0452334 0.0452334 0.0111691 0.0111691 0.0541064 0.0541064 0.021844 0.021844 0.140925 0.140925 0.150357 0.150357 0.000260681 0.000260681 0.0195745 0.0195745 0 0 0.00974521 0.00974521 0.0132395 0.0132395 0.0642355 0.0642355 0.18767 0.18767 0.0271553 0.0271553 0.0915543 0.0915543 0.0915543 0.0915543 0.0240922 0.0240922 0.0137498 0.0137498 0.0644299 0.0644299 0.0644299 0.0644299 0.0358443 0.0358443 0.0128672 0.0128672 0.236203 0.236203 0.181571 0.181571 0.0177297 0.0177297 0.000537123 0.000537123 0.00171351 0.00171351 0.0719849 0.0719849 0.0019921 0.0019921 0.0622995 0.0622995 0 0 0.0116026 0.0116026 0.015922 0.015922 0.00426001 0.00426001 0.00100497 0.00100497 0.00217158 0.00217158 0.0108964 0.0108964 0.0138397 0.0138397 0.0267955 0.0267955 0.0351271 0.0351271 0.0199933 0.0199933 0.0124878 0.0124878 0.00208723 0.00208723 0.050805 0.050805 0.0060328 0.0060328 0.0460642 0.0460642 0.0405502 0.0405502 0.00232864 0.00232864 0.0288123 0.0288123 0.0290562 0.0290562 0.246674 0.246674 0.000945826 0.000945826 0.0421323 0.0421323 0.0303337 0.0303337 0.0127159 0.0127159 0.06653 0.06653 0.0390906 0.0390906 0.0142078 0.0142078 0.000525387 0.000525387 0.00358791 0.00358791 0.0280214 0.0280214 0.0218399 0.0218399 0.00789985 0.00789985 0.00190811 0.00190811 0.000984961 0.000984961 0.00339042 0.00339042 0.00410476 0.00410476 0.000573232 0.000573232 0.000443494 0.000443494 0.00133708 0.00133708 0.0172488 0.0172488 0.0151445 0.0151445 0.0424881 0.0424881 0.00933193 0.00933193 0.0116453 0.0116453 0.0654592 0.0654592 0.0467391 0.0467391 0.0950748 0.0950748 0.000658047 0.000658047 0.00627715 0.00627715 0.00798566 0.00798566 0.0191212 0.0191212 0.0404538 0.0404538 0.0232502 0.0232502 0.0382605 0.0382605 0.0565413 0.0565413 0.0133331 0.0133331 0.00140938 0.00140938 0.0259459 0.0259459 0.000138891 0.000138891 0.00597639 0.00597639 0.000319465 0.000319465 0.0462013 0.0462013 0.00609367 0.00609367 0.0429782 0.0429782 0.0144506 0.0144506 0.0526647 0.0526647 0.145138 0.145138 0.00387998 0.00387998 0.0178807 0.0178807 0.0856231 0.0856231 7.22019e-05 7.22019e-05 0.0527853 0.0527853 0.0496003 0.0496003 0.0405976 0.0405976 0.10389 0.10389 0.151182 0.151182 0.117569 0.117569 0.0640457 0.0640457 0.0527595 0.0527595 0.00567251 0.00567251 0.0097936 0.0097936 0.00600872 0.00600872 0.00419545 0.00419545 0.00422198 0.00422198 0.0141618 0.0141618 0.0164661 0.0164661 0.0645119 0.0645119 0.108143 0.108143 0.000601653 0.000601653 0.0223888 0.0223888 0.00612389 0.00612389 0.0102638 0.0102638 0.0178745 0.0178745 0.0364337 0.0364337 0.0421132 0.0421132 0.00604507 0.00604507 0.0326521 0.0326521 0.073411 0.073411 0.00866348 0.00866348 0.0132635 0.0132635 0.242299 0.242299 0.0484824 0.0484824 0.104312 0.104312 0.012572 0.012572 0.0209591 0.0209591 0.38829 0.38829 0.0448745 0.0448745 0.0250239 0.0250239 0.00748086 0.00748086 0.0267875 0.0267875 0.0127271 0.0127271 0.0392357 0.0392357 0.0236768 0.0236768 0.0229383 0.0229383 0.0094278 0.0094278 0.12778 0.12778 0.00166381 0.00166381 0.0126535 0.0126535 0.00457005 0.00457005 0.0616232 0.0616232 0.277934 0.277934 0.0137328 0.0137328 0.0255593 0.0255593 0.00172944 0.00172944 0.00499438 0.00499438 0.0264154 0.0264154 0.060609 0.060609 0.01532 0.01532 0.120946 0.120946 0.00795699 0.00795699 0.0184902 0.0184902 0.0161581 0.0161581 0.0185586 0.0185586 0.000944778 0.000944778 0.00303415 0.00303415 0.102853 0.102853 0.0684161 0.0684161 0.00806581 0.00806581 0.151741 0.151741 0.151741 0.151741 0.0843211 0.0843211 0.0147764 0.0147764 0.0559728 0.0559728 0.0433403 0.0433403 0.0989457 0.0989457 0.0955817 0.0955817 0.072072 0.072072 0.00062565 0.00062565 0.0113584 0.0113584 0.260028 0.260028 0.0251769 0.0251769 0.0656447 0.0656447 0.014506 0.014506 0.00107064 0.00107064 0.073288 0.073288 0.0136109 0.0136109 0.00278107 0.00278107 0.0855465 0.0855465 0.000367893 0.000367893 0.00358894 0.00358894 0 0 0.000709981 0.000709981 0.00119438 0.00119438 0.00866175 0.00866175 0.00648129 0.00648129 0.00342781 0.00342781 0.00588597 0.00588597 0.00327062 0.00327062 0.080716 0.080716 0.0198488 0.0198488 0.0022853 0.0022853 0.0129498 0.0129498 0.133863 0.133863 0.00427338 0.00427338 0.0031114 0.0031114 0.0233248 0.0233248 0.0084075 0.0084075 0.0244834 0.0244834 0.0127351 0.0127351 0.0184131 0.0184131 0.0246907 0.0246907 0.0072332 0.0072332 0.0448154 0.0448154 0.0487039 0.0487039 0.0125541 0.0125541 0.0822972 0.0822972 0.00667852 0.00667852 0.0295471 0.0295471 0.00305406 0.00305406 0.0147999 0.0147999 0.000200818 0.000200818 0.00873096 0.00873096 0.000205315 0.000205315 0.00518867 0.00518867 0.0713394 0.0713394 0.0122466 0.0122466 0.0701354 0.0701354 0.00426338 0.00426338 0.00867425 0.00867425 0.00157878 0.00157878 0.0305178 0.0305178 0.175206 0.175206 0.0147613 0.0147613 0.0620006 0.0620006 0.238824 0.238824 0.00247032 0.00247032 0.0131763 0.0131763 0.09077 0.09077 0.0264089 0.0264089 0.00700694 0.00700694 0.0234227 0.0234227 0.0788864 0.0788864 0.0220103 0.0220103 0.000475949 0.000475949 0.0226548 0.0226548 0.000137692 0.000137692 0.0154946 0.0154946 0.0183199 0.0183199 0.044333 0.044333 3.23635e-05 3.23635e-05 0.00188849 0.00188849 0.138335 0.138335 0.138335 0.138335 0.18799 0.18799 0.0467197 0.0467197 0.329565 0.329565 0.00104443 0.00104443