<?xml version="1.0"?>
<VTKFile type="PolyData" version="0.1" byte_order="LittleEndian" >
<PolyData>
<Piece NumberOfPoints="5216" NumberOfVerts="0" NumberOfLines="2608" NumberOfStrips="0" NumberOfPolys="0">
<Points>
<DataArray type="Float32" NumberOfComponents="3" format="ascii">
0.043249 0.172889 0.452155 0.0662533 0.173812 0.459487 0.043249 0.172889 0.452155 0.0603994 0.172597 0.464781 0.129594 0.0852409 0.455183 0.121588 0.0938996 0.458279 0.129594 0.0852409 0.455183 0.124661 0.0994089 0.455356 0.129594 0.0852409 0.455183 0.124661 0.0994089 0.455356 0.129594 0.0852409 0.455183 0.136169 0.0931614 0.454028 0.0365775 0.11159 0.452294 0.0321352 0.122899 0.460448 0.10196 0.14886 0.459106 0.100573 0.16546 0.467973 0.10196 0.14886 0.459106 0.10908 0.16005 0.471186 0.10196 0.14886 0.459106 0.113109 0.140751 0.454823 0.00944667 0.170873 0.452521 -0.000200016 0.17883 0.446896 0.0383083 0.0547656 0.453991 0.0378273 0.0616919 0.462011 0.0383083 0.0547656 0.453991 0.0378273 0.0616919 0.462011 0.0383083 0.0547656 0.453991 0.0453078 0.0613147 0.466245 0.0383083 0.0547656 0.453991 0.0379659 0.061903 0.456274 0.0383083 0.0547656 0.453991 0.0429296 0.0498 0.465789 0.0205704 0.124771 0.455678 0.0374787 0.12899 0.461522 0.12854 0.0627505 0.454509 0.132374 0.0498 0.457265 0.0394354 0.108013 0.457052 0.0365775 0.11159 0.452294 0.0394354 0.108013 0.457052 0.0383232 0.125358 0.466236 0.106123 0.0715166 0.45643 0.115653 0.0600806 0.457835 0.106123 0.0715166 0.45643 0.113042 0.0644333 0.461294 0.106123 0.0715166 0.45643 0.111376 0.0797307 0.452053 0.106123 0.0715166 0.45643 0.114136 0.0760533 0.45571 0.151662 0.0896594 0.453247 0.146215 0.100287 0.464874 0.151662 0.0896594 0.453247 0.144268 0.0914154 0.462123 0.151662 0.0896594 0.453247 0.144268 0.0914154 0.462123 0.151662 0.0896594 0.453247 0.146099 0.103383 0.453552 0.151662 0.0896594 0.453247 0.13513 0.101713 0.459566 0.151662 0.0896594 0.453247 0.1602 0.100128 0.45104 0.151662 0.0896594 0.453247 0.1602 0.0837821 0.444308 0.124661 0.0994089 0.455356 0.136169 0.0931614 0.454028 0.124661 0.0994089 0.455356 0.146099 0.103383 0.453552 0.0635955 0.14938 0.452511 0.072551 0.151992 0.457312 0.0635955 0.14938 0.452511 0.072551 0.151992 0.457312 0.0635955 0.14938 0.452511 0.0500997 0.155927 0.451277 0.137863 0.149963 0.45635 0.14797 0.160886 0.462036 0.137863 0.149963 0.45635 0.146551 0.152612 0.450704 0.137863 0.149963 0.45635 0.140914 0.159395 0.454468 0.137863 0.149963 0.45635 0.140914 0.159395 0.454468 0.137863 0.149963 0.45635 0.140914 0.159395 0.454468 0.137863 0.149963 0.45635 0.14642 0.155873 0.458554 0.137863 0.149963 0.45635 0.152447 0.152007 0.454593 0.0015 0.134763 0.452301 -0.000200002 0.121384 0.451134 0.0015 0.134763 0.452301 -0.000200002 0.13413 0.438886 0.104083 0.0832976 0.460624 0.0997859 0.0972812 0.462053 0.104083 0.0832976 0.460624 0.105971 0.0922381 0.451583 0.104083 0.0832976 0.460624 0.118228 0.084921 0.471935 0.104083 0.0832976 0.460624 0.111376 0.0797307 0.452053 0.104083 0.0832976 0.460624 0.114136 0.0760533 0.45571 0.139118 0.058327 0.454292 0.143056 0.0629288 0.460742 0.139118 0.058327 0.454292 0.150407 0.0627236 0.45583 0.139118 0.058327 0.454292 0.124955 0.06225 0.458021 0.139118 0.058327 0.454292 0.12854 0.0627505 0.454509 0.139118 0.058327 0.454292 0.12854 0.0627505 0.454509 0.139118 0.058327 0.454292 0.137654 0.0498 0.464899 0.150407 0.0627236 0.45583 0.1602 0.0570851 0.448058 0.0955022 0.103929 0.456352 0.0935035 0.122998 0.456189 0.0995802 0.166424 0.459892 0.101674 0.156752 0.451343 0.0684738 0.170078 0.453349 0.064664 0.16662 0.450608 0.0684738 0.170078 0.453349 0.064664 0.16662 0.450608 0.0325703 0.108459 0.4587 0.0394354 0.108013 0.457052 0.0325703 0.108459 0.4587 0.0394354 0.108013 0.457052 0.0325703 0.108459 0.4587 0.0394354 0.108013 0.457052 0.0247031 0.146616 0.455629 0.0347881 0.156064 0.464022 0.0247031 0.146616 0.455629 0.0255553 0.151027 0.463345 0.0247031 0.146616 0.455629 0.0255553 0.151027 0.463345 0.0247031 0.146616 0.455629 0.0321352 0.122899 0.460448 0.0685765 0.0735042 0.453028 0.0753413 0.0775879 0.452786 0.0685765 0.0735042 0.453028 0.0753413 0.0775879 0.452786 0.0685765 0.0735042 0.453028 0.0867821 0.0618483 0.455732 0.0117091 0.0753131 0.453373 0.0175355 0.0625004 0.453807 0.0117091 0.0753131 0.453373 0.0139791 0.0961775 0.455005 0.0870732 0.0614106 0.451082 0.0867821 0.0618483 0.455732 0.0870732 0.0614106 0.451082 0.0867821 0.0618483 0.455732 0.0870732 0.0614106 0.451082 0.0867821 0.0618483 0.455732 0.152447 0.152007 0.454593 0.1602 0.15571 0.443959 0.121588 0.0938996 0.458279 0.124661 0.0994089 0.455356 0.121588 0.0938996 0.458279 0.136169 0.0931614 0.454028 0.0816868 0.143843 0.464798 0.072551 0.151992 0.457312 0.0816868 0.143843 0.464798 0.072551 0.151992 0.457312 0.0816868 0.143843 0.464798 0.0825047 0.152188 0.474216 0.0816868 0.143843 0.464798 0.0926763 0.126319 0.466709 0.0816868 0.143843 0.464798 0.0842082 0.139609 0.454325 0.0816868 0.143843 0.464798 0.0915858 0.146284 0.468237 0.0816868 0.143843 0.464798 0.0847645 0.134832 0.463917 0.119932 0.118389 0.458597 0.133472 0.128616 0.466504 0.119932 0.118389 0.458597 0.112605 0.123297 0.456486 0.119932 0.118389 0.458597 0.105443 0.136436 0.464768 0.119932 0.118389 0.458597 0.109854 0.122737 0.452402 0.119932 0.118389 0.458597 0.109854 0.122737 0.452402 0.0232528 0.102289 0.46102 0.0145537 0.111508 0.45261 0.0232528 0.102289 0.46102 0.0290326 0.110781 0.472284 0.0232528 0.102289 0.46102 0.034081 0.0959068 0.474375 0.0232528 0.102289 0.46102 0.0325703 0.108459 0.4587 0.0809677 0.148391 0.4517 0.0816868 0.143843 0.464798 0.0809677 0.148391 0.4517 0.0635955 0.14938 0.452511 0.0809677 0.148391 0.4517 0.086282 0.159452 0.472124 0.0809677 0.148391 0.4517 0.072551 0.151992 0.457312 0.0809677 0.148391 0.4517 0.072551 0.151992 0.457312 0.0809677 0.148391 0.4517 0.0778906 0.156173 0.450706 0.0809677 0.148391 0.4517 0.0778906 0.156173 0.450706 0.114136 0.0760533 0.45571 0.105971 0.0922381 0.451583 0.127687 0.0723301 0.45807 0.114136 0.0760533 0.45571 0.127687 0.0723301 0.45807 0.129594 0.0852409 0.455183 0.127687 0.0723301 0.45807 0.143056 0.0629288 0.460742 0.0870703 0.123299 0.453673 0.0935035 0.122998 0.456189 0.0870703 0.123299 0.453673 0.112605 0.123297 0.456486 0.058438 0.0841133 0.454934 0.0613896 0.0963262 0.466151 0.058438 0.0841133 0.454934 0.0629589 0.0923485 0.45634 0.058438 0.0841133 0.454934 0.0629589 0.0923485 0.45634 0.153329 0.137373 0.458571 0.1602 0.146452 0.466102 0.153329 0.137373 0.458571 0.1602 0.128783 0.466656 0.0633486 0.114809 0.454178 0.0734936 0.114967 0.452608 0.0633486 0.114809 0.454178 0.0671427 0.122317 0.461845 0.0633486 0.114809 0.454178 0.0561526 0.130432 0.45365 0.0193854 0.0650583 0.454532 0.0175355 0.0625004 0.453807 0.0193854 0.0650583 0.454532 0.0175355 0.0625004 0.453807 0.0193854 0.0650583 0.454532 0.0175355 0.0625004 0.453807 0.0193854 0.0650583 0.454532 0.0175355 0.0625004 0.453807 0.0448059 0.138984 0.463213 0.031882 0.152106 0.47097 0.0448059 0.138984 0.463213 0.0635305 0.140715 0.458721 0.0561526 0.130432 0.45365 0.0533041 0.154729 0.456592 0.102232 0.10102 0.465108 0.0955022 0.103929 0.456352 0.102232 0.10102 0.465108 0.117886 0.106642 0.473835 0.102232 0.10102 0.465108 0.111478 0.101744 0.464698 0.148029 0.13735 0.45803 0.153329 0.137373 0.458571 0.148029 0.13735 0.45803 0.140914 0.159395 0.454468 0.00725539 0.134556 0.452741 -0.000200006 0.125546 0.459808 0.0469618 0.168244 0.460564 0.0500997 0.155927 0.451277 0.0469618 0.168244 0.460564 0.0603994 0.172597 0.464781 0.0692247 0.108195 0.462351 0.0633486 0.114809 0.454178 0.0692247 0.108195 0.462351 0.0734936 0.114967 0.452608 0.0692247 0.108195 0.462351 0.0592831 0.121877 0.483481 0.102116 0.162232 0.450978 0.101674 0.156752 0.451343 0.039499 0.145755 0.455522 0.0436291 0.150806 0.462 0.039499 0.145755 0.455522 0.031882 0.152106 0.47097 0.039499 0.145755 0.455522 0.0500997 0.155927 0.451277 0.0902542 0.08536 0.459336 0.0836442 0.0914637 0.452735 0.0902542 0.08536 0.459336 0.0893904 0.0946392 0.455189 0.0902542 0.08536 0.459336 0.0997859 0.0972812 0.462053 0.145571 0.0591709 0.464094 0.139118 0.058327 0.454292 0.145571 0.0591709 0.464094 0.143056 0.0629288 0.460742 0.145571 0.0591709 0.464094 0.146807 0.0678603 0.471451 0.145571 0.0591709 0.464094 0.150407 0.0627236 0.45583 0.145571 0.0591709 0.464094 0.150407 0.0627236 0.45583 0.145571 0.0591709 0.464094 0.138642 0.0498 0.471308 0.0629589 0.0923485 0.45634 0.0575351 0.0944814 0.458951 0.0629589 0.0923485 0.45634 0.0575351 0.0944814 0.458951 0.0920001 0.0889384 0.452565 0.0902542 0.08536 0.459336 0.0920001 0.0889384 0.452565 0.0836442 0.0914637 0.452735 0.0920001 0.0889384 0.452565 0.0893904 0.0946392 0.455189 0.0920001 0.0889384 0.452565 0.0893904 0.0946392 0.455189 0.0920001 0.0889384 0.452565 0.105971 0.0922381 0.451583 0.0124905 0.110813 0.460937 0.0145537 0.111508 0.45261 0.0124905 0.110813 0.460937 0.0145537 0.111508 0.45261 0.0962757 0.134341 0.45743 0.0935035 0.122998 0.456189 0.0962757 0.134341 0.45743 0.113109 0.140751 0.454823 0.0249311 0.0839204 0.457209 0.0193854 0.0650583 0.454532 0.0249311 0.0839204 0.457209 0.0417178 0.0923686 0.463982 0.0249311 0.0839204 0.457209 0.03945 0.101019 0.46618 0.0249311 0.0839204 0.457209 0.0139791 0.0961775 0.455005 0.0249311 0.0839204 0.457209 0.0167005 0.092063 0.457514 0.0249311 0.0839204 0.457209 0.0351529 0.0673666 0.455617 0.0249311 0.0839204 0.457209 0.0344461 0.0716778 0.452071 0.0249311 0.0839204 0.457209 0.0394558 0.0782683 0.45754 0.0246628 0.139216 0.460017 0.0247031 0.146616 0.455629 0.0246628 0.139216 0.460017 0.0205704 0.124771 0.455678 0.0246628 0.139216 0.460017 0.0436291 0.150806 0.462 0.0246628 0.139216 0.460017 0.0255553 0.151027 0.463345 0.0246628 0.139216 0.460017 0.0356129 0.133173 0.458416 0.0213379 0.174774 0.462647 0.0369353 0.171867 0.464939 0.0230207 0.143095 0.451816 0.0247031 0.146616 0.455629 0.0230207 0.143095 0.451816 0.0247031 0.146616 0.455629 0.0230207 0.143095 0.451816 0.00991249 0.156709 0.453654 0.0815879 0.169148 0.451395 0.0684738 0.170078 0.453349 0.08
[...]
<PointData Scalars="F_N">
<DataArray type="Float32" Name="F_N" format="ascii">
7.83973e-05 7.83973e-05 0.00265302 0.00265302 0.000221848 0.000221848 0.000221557 0.000221557 0.00049273 0.00049273 0.00771046 0.00771046 0.0075973 0.0075973 0.00192296 0.00192296 0.00115123 0.00115123 0.00712307 0.00712307 0.000295085 0.000295085 0.000496882 0.000496882 0.00221882 0.00221882 0.000946132 0.000946132 0.000281395 0.000281395 0.00143008 0.00143008 0.00161793 0.00161793 0.000270941 0.000270941 0.0207575 0.0207575 0.00269829 0.00269829 0.000691514 0.000691514 0.00158291 0.00158291 0.00130999 0.00130999 0.00874459 0.00874459 0.0106176 0.0106176 0.0214099 0.0214099 0.00156827 0.00156827 0.000440513 0.000440513 6.01651e-05 6.01651e-05 0 0 0 0 0.0237405 0.0237405 0.00636683 0.00636683 0.00697732 0.00697732 0.0452046 0.0452046 0.00127822 0.00127822 1.74361e-05 1.74361e-05 0.0016618 0.0016618 0.00926609 0.00926609 0.00872984 0.00872984 0.00321401 0.00321401 0.00722151 0.00722151 0.000725165 0.000725165 0.000661737 0.000661737 0.000915777 0.000915777 0.000138805 0.000138805 0.00196657 0.00196657 0.0019701 0.0019701 0.00563178 0.00563178 0.0043738 0.0043738 0.000416789 0.000416789 0.00266937 0.00266937 0.000612359 0.000612359 0.00112836 0.00112836 0.00594655 0.00594655 0.000185909 0.000185909 0 0 0.00105905 0.00105905 0.00804356 0.00804356 0.00496185 0.00496185 0.0250468 0.0250468 0.0581578 0.0581578 0.00285313 0.00285313 0.0345022 0.0345022 0.000324248 0.000324248 0.0101295 0.0101295 0.00960748 0.00960748 0.000301011 0.000301011 0.00100989 0.00100989 0.0165223 0.0165223 0.00523029 0.00523029 0.00142768 0.00142768 0.000514468 0.000514468 0.0168502 0.0168502 0.0230424 0.0230424 0.00859427 0.00859427 0 0 0.00496 0.00496 2.03331e-05 2.03331e-05 0.00619919 0.00619919 0.00619919 0.00619919 0.00332422 0.00332422 0.000577768 0.000577768 0.000591985 0.000591985 0.001194 0.001194 0.00286047 0.00286047 0.000695859 0.000695859 0.00191177 0.00191177 0.00108476 0.00108476 0.0141391 0.0141391 0.00833195 0.00833195 0.00395923 0.00395923 0.0140341 0.0140341 0.00668143 0.00668143 0.0122896 0.0122896 0.00191394 0.00191394 0.0211981 0.0211981 3.71982e-06 3.71982e-06 0.00969906 0.00969906 0.00710139 0.00710139 0.022882 0.022882 0.0225646 0.0225646 7.03126e-05 7.03126e-05 0.00649542 0.00649542 0.000915286 0.000915286 0.000248854 0.000248854 0.00654796 0.00654796 0.000531087 0.000531087 0.00112128 0.00112128 0.0296579 0.0296579 0.0138552 0.0138552 0 0 0 0 0.00104401 0.00104401 0.000358864 0.000358864 0.00318007 0.00318007 0.000218948 0.000218948 0.00181411 0.00181411 0.000559037 0.000559037 0.000321073 0.000321073 0.000359679 0.000359679 0.00631032 0.00631032 0.000479967 0.000479967 0.0107391 0.0107391 0.00224864 0.00224864 0.0136659 0.0136659 0.000242755 0.000242755 0.000336867 0.000336867 0.000275408 0.000275408 0.000989659 0.000989659 0.000376941 0.000376941 0.00302926 0.00302926 6.73694e-05 6.73694e-05 0.00200749 0.00200749 0.0169674 0.0169674 0.00104076 0.00104076 0.00150151 0.00150151 0.00341797 0.00341797 0.00160918 0.00160918 0.00271609 0.00271609 0.000853591 0.000853591 0.00263405 0.00263405 0.0011956 0.0011956 0.00138102 0.00138102 0.00331046 0.00331046 0.00261031 0.00261031 0.000161746 0.000161746 0.0241028 0.0241028 0.00609762 0.00609762 0.00271304 0.00271304 0.00111849 0.00111849 0.00980916 0.00980916 0.0045732 0.0045732 0.00560993 0.00560993 0.00526864 0.00526864 0.00624301 0.00624301 0.003015 0.003015 0.0081807 0.0081807 0.00196698 0.00196698 0.000401255 0.000401255 0.00381306 0.00381306 0.00170039 0.00170039 0.00597376 0.00597376 0.00020624 0.00020624 5.08976e-05 5.08976e-05 0.000498138 0.000498138 0.00842385 0.00842385 0.00270586 0.00270586 0.0049561 0.0049561 0.00749748 0.00749748 0.00304598 0.00304598 0.00123528 0.00123528 0.00696997 0.00696997 0.0308644 0.0308644 0.00262561 0.00262561 0.0107587 0.0107587 0.0043275 0.0043275 0.0051929 0.0051929 0.0109183 0.0109183 0.000410133 0.000410133 0.00087392 0.00087392 0.000787701 0.000787701 0.00014166 0.00014166 0.00134079 0.00134079 0.00283985 0.00283985 0.000624224 0.000624224 0.00731729 0.00731729 0.00143315 0.00143315 0.000311832 0.000311832 5.54954e-05 5.54954e-05 0.00223879 0.00223879 3.96218e-05 3.96218e-05 0.0127403 0.0127403 0.00913827 0.00913827 9.52037e-05 9.52037e-05 0.00480792 0.00480792 0.0194442 0.0194442 0.00051593 0.00051593 0.00201656 0.00201656 0.000724881 0.000724881 0.00809179 0.00809179 0.000344855 0.000344855 0.00189625 0.00189625 0.000503139 0.000503139 0.00306172 0.00306172 0.00701286 0.00701286 0.00473182 0.00473182 0.00155594 0.00155594 0.00142515 0.00142515 0.00137211 0.00137211 0.00576793 0.00576793 0.002074 0.002074 0.00125372 0.00125372 0.000697119 0.000697119 0 0 0.00160847 0.00160847 0.00272591 0.00272591 0.00405898 0.00405898 0.0165292 0.0165292 0.00703829 0.00703829 0.00805351 0.00805351 0.000852525 0.000852525 0.000754275 0.000754275 0.00127335 0.00127335 0.00256052 0.00256052 0.000530262 0.000530262 0.00218939 0.00218939 1.38801e-05 1.38801e-05 0.000940252 0.000940252 0.0050724 0.0050724 0.00162206 0.00162206 0.0182583 0.0182583 0.00514559 0.00514559 0.00519189 0.00519189 0.00203466 0.00203466 0.000535412 0.000535412 0.00407988 0.00407988 0.0104792 0.0104792 0.000494201 0.000494201 0.00140191 0.00140191 0.0107435 0.0107435 0.0020338 0.0020338 0.00231014 0.00231014 0.000169649 0.000169649 0.00315912 0.00315912 0.00757673 0.00757673 8.52601e-05 8.52601e-05 0.00193012 0.00193012 0.00293899 0.00293899 0.00383607 0.00383607 0.00385955 0.00385955 0.00347017 0.00347017 0.0157071 0.0157071 0.00260653 0.00260653 0.0151735 0.0151735 0.000400656 0.000400656 0.000256444 0.000256444 0.000307615 0.000307615 0.00726517 0.00726517 0.00553708 0.00553708 0.000129675 0.000129675 0.00179603 0.00179603 0.000720178 0.000720178 0.00054249 0.00054249 0.00510135 0.00510135 0.00565245 0.00565245 0.00126276 0.00126276 0.00777956 0.00777956 0.00335354 0.00335354 0.000787614 0.000787614 0.00112175 0.00112175 0.00098195 0.00098195 0.0146381 0.0146381 0.00131938 0.00131938 0.00389802 0.00389802 0.00244992 0.00244992 0.0124806 0.0124806 0.00861052 0.00861052 0.00173758 0.00173758 0.00641531 0.00641531 0.00799667 0.00799667 0.00351542 0.00351542 0.00050926 0.00050926 0.00300487 0.00300487 0.00208179 0.00208179 0.00236938 0.00236938 0.00234061 0.00234061 0.000153821 0.000153821 0.00239854 0.00239854 0.000829262 0.000829262 0.00198 0.00198 0.00451067 0.00451067 0.00329643 0.00329643 0.000838705 0.000838705 0.00230467 0.00230467 0.00669471 0.00669471 0.0027638 0.0027638 0.000396634 0.000396634 0.00096118 0.00096118 2.20634e-05 2.20634e-05 0.00125348 0.00125348 0.00590433 0.00590433 0.000980665 0.000980665 0 0 0.00411143 0.00411143 0.000792761 0.000792761 0.0019456 0.0019456 0.00127887 0.00127887 5.87021e-05 5.87021e-05 5.87021e-05 5.87021e-05 0.000112657 0.000112657 7.44903e-05 7.44903e-05 0.00286074 0.00286074 0.00621197 0.00621197 0.00221347 0.00221347 0.00209867 0.00209867 0.00120781 0.00120781 0.000679541 0.000679541 0.00496551 0.00496551 0.00299228 0.00299228 0.000113462 0.000113462 0.00284828 0.00284828 0.00545916 0.00545916 0.00671273 0.00671273 0.00314839 0.00314839 0.00447834 0.00447834 0.000251401 0.000251401 0.0109392 0.0109392 0.0192014 0.0192014 0.00219637 0.00219637 0.000111139 0.000111139 0.00209455 0.00209455 0.00209789 0.00209789 0.0143024 0.0143024 0.000274374 0.000274374 0.00015058 0.00015058 0.0105747 0.0105747 0.0014409 0.0014409 0.00238307 0.00238307 0.00803701 0.00803701 6.45438e-05 6.45438e-05 0.006705 0.006705 0.0054368 0.0054368 0.000213461 0.000213461 0.00149011 0.00149011 2.55216e-05 2.55216e-05 0.00622801 0.00622801 0.000820121 0.000820121 0.000291939 0.000291939 0.00379206 0.00379206 0.00159538 0.00159538 0.000969696 0.000969696 0.000378983 0.000378983 0.010193 0.010193 0.00353028 0.00353028 0.0035978 0.0035978 0.000425849 0.000425849 0.000785447 0.000785447 0.000573269 0.000573269 0.00414348 0.00414348 0.000796524 0.000796524 0.0045737 0.0045737 0.00782959 0.00782959 0.000565178 0.000565178 0.00406918 0.00406918 6.19826e-05 6.19826e-05 0.00209259 0.00209259 0.00198234 0.00198234 0.00192343 0.00192343 0.0078383 0.0078383 0.00414389 0.00414389 6.36285e-05 6.36285e-05 0.00157684 0.00157684 0.000848177 0.000848177 0.000262062 0.000262062 0.000696979 0.000696979 0.000326641 0.000326641 0.0114699 0.0114699 0.00336247 0.00336247 0.00023863 0.00023863 0.00985381 0.00985381 0.0171716 0.0171716 0.000357154 0.000357154 0.000896113 0.000896113 0.00567625 0.00567625 0.00168473 0.00168473 0.00229066 0.00229066 0.000184122 0.000184122 0.000483753 0.000483753 1.3966e-06 1.3966e-06 0.00225812 0.00225812 0.00855097 0.00855097 0.00404677 0.00404677 0.00188856 0.00188856 0.0192164 0.0192164 0.0066408 0.0066408 0.00655844 0.00655844 3.29689e-05 3.29689e-05 0.00284137 0.00284137 0.00503103 0.00503103 0.000212053 0.000212053 0.000823133 0.000823133 0.00090023 0.00090023 0.00970984 0.00970984 0.00432402 0.00432402 0.000878899 0.000878899 0.000445555 0.000445555 0.000205138 0.000205138 0.00167397 0.00167397 0.00209167 0.00209167 0.00163622 0.00163622 0.00632857 0.00632857 0.00558149 0.00558149 0.000932437 0.000932437 0.00261769 0.00261769 0.0124125 0.0124125 0.00283198 0.00283198 0.049805 0.049805 0.0496611 0.0496611 0.0308915 0.0308915 0.0284683 0.0284683 0.000300295 0.000300295 0.000792747 0.000792747 0.00101245 0.00101245 0.00244476 0.00244476 0.00139574 0.00139574 0.00194297 0.00194297 0.000458133 0.000458133 0.0399666 0.0399666 0.00142508 0.00142508 0.0132612 0.0132612 0.00646068 0.00646068 0.00257069 0.00257069 0.000617997 0.000617997 0.00035665 0.00035665 0.0013654 0.0013654 0.000345329 0.000345329 0.00443906 0.00443906 0.0091726 0.0091726 0.00034724 0.00034724 0.000365395 0.000365395 0.0230544 0.0230544 0.00621081 0.00621081 0.000522476 0.000522476 0.0082849 0.0082849 0.00684109 0.00684109 0.00281047 0.00281047 0.0113202 0.0113202 0.000799558 0.000799558 0.00301721 0.00301721 0.00210474 0.00210474 0.000322738 0.000322738 0.00058612 0.00058612 0.0068664 0.0068664 0.00359191 0.00359191 0.000902913 0.000902913 0.00282606 0.00282606 0.00105768 0.00105768 0.0174998 0.0174998 0.000169966 0.000169966 8.71377e-05 8.71377e-05 0.00331494 0.00331494 0.00183313 0.00183313 0.000762393 0.000762393 0.000762393 0.000762393 0.0095592 0.0095592 0.000348241 0.000348241 0.0098299 0.0098299 0.00170212 0.00170212 0.000625414 0.000625414 0.00178047 0.00178047 0.00109171 0.00109171 0.0033981 0.0033981 0.0229576 0.0229576 0.00483627 0.00483627 0.00327172 0.00327172 0.0100827 0.0100827 0.0122354 0.0122354 0.000938713 0.000938713 0.000154278 0.000154278 0.00381215 0.00381215 0.00501781 0.00501781 0.00292891 0.00292891 0.000347436 0.000347436 1.86358e-05 1.86358e-05 0.00180361 0.00180361 0.00183046 0.00183046 0.000143201 0.000143201 0.000802705 0.000802705 0.00029494 0.00029494 0.00197591 0.00197591 0.00221029 0.00221029 0.00187638 0.00187638 0.015437 0.015437 0.00128361 0.00128361 0.000508696 0.000508696 0.000434154 0.000434154 0.00127583 0.00127583 0.00651998 0.00651998 0.0108958 0.0108958 0.00479187 0.00479187 0.000264722 0.000264722 0.00161761 0.00161761 0.00551617 0.00551617 0.00975217 0.00975217 0.000264677 0.000264677 0.000427303 0.000427303 6.67305e-05 6.67305e-05 0.0101768 0.0101768 0.000903187 0.000903187 0.000111462 0.000111462 0.0012162 0.0012162 0.00121539 0.00121539 0.00131042 0.00131042 0.0176309 0.0176309 0.000417697 0.000417697 0.0173195 0.0173195 0.00931548 0.00931548 0.000153641 0.000153641 0.00086728 0.00086728 0.00571238 0.00571238 0.00359489 0.00359489 0.00069409 0.00069409 0.00057738 0.00057738 0.00142056 0.00142056 0.000196465 0.000196465 0.000168426 0.000168426 0.00706154 0.00706154 0.000171327 0.000171327 0.000203492 0.000203492 0.00440883 0.00440883 7.02914e-05 7.02914e-05 0.000596896 0.000596896 0.000393381 0.000393381 0.00100803 0.00100803 0.00664489 0.00664489 0.000842905 0.000842905 0.000255925 0.000255925 0.00119962 0.00119962 0.0056417 0.0056417 0.000238299 0.000238299 0.0120847 0.0120847 0.00706071 0.00706071 0.00199237 0.00199237 0.00281238 0.00281238 0.00193222 0.00193222 0.00699007 0.00699007 0.000815276 0.000815276 0.000811619 0.000811619 0.0151534 0.0151534 0.00230677 0.00230677 0.000775387 0.000775387 0.0024903 0.0024903 0.000988675 0.000988675 0.00132083 0.00132083 0.000662018 0.000662018 0.000680701 0.000680701 0.00149201 0.00149201 0.0136385 0.0136385 0.00774374 0.00774374 0.0140248 0.0140248 0.00095579 0.00095579 0.0012562 0.0012562 0.000801701 0.000801701 0.00120698 0.00120698 0.00823622 0.00823622 0.00596524 0.00596524 0.000575075 0.000575075 0.0010929 0.0010929 0.000443228 0.000443228 0.00197237 0.00197237 0.00070919 0.00070919 0.00601563 0.00601563 0.00144727 0.00144727 0.0455865 0.0455865 0.0114863 0.0114863 0.00596516 0.00596516 4.00892e-05 4.00892e-05 0.0127611 0.0127611 0.0158582 0.0158582 0.00974547 0.00974547 0.00107861 0.00107861 0.0186578 0.0186578 0.00312288 0.00312288 0.00343601 0.00343601 0.00343601 0.00343601 3.13587e-05 3.13587e-05 0.00639592 0.00639592 0.000158585 0.000158585 0.00219063 0.00219063 0.00646137 0.00646137 0.00138764 0.00138764 0.00734489 0.00734489 0.00353094 0.00353094 0.00244011 0.00244011 0.000148318 0.000148318 0.00151241 0.00151241 0.00149125 0.00149125 0.00200845 0.00200845 0.000204883 0.000204883 0.000164765 0.000164765 0.00967102 0.00967102 0.00310396 0.00310396 0.00439153 0.00439153 0.000834512 0.000834512 0.00126896 0.00126896 0.000421648 0.000421648 0.00117763 0.00117763 0.00539779 0.00539779 0.000101982 0.000101982 0.00078313 0.00078313 0.00191333 0.00191333 0.00321751 0.00321751 0.00228517 0.00228517 5.14733e-05 5.14733e-05 7.5993e-05 7.5993e-05 0.0029496 0.0029496 0.0291691 0.0291691 0.0125583 0.0125583 0.00181153 0.00181153 0.00712354 0.00712354 0.000258821 0.000258821 0.000374755 0.000374755 0.000723392 0.000723392 0.00150478 0.00150478 0.00253635 0.00253635 0.000177603 0.000177603 0 0 0 0 0.00236756 0.00236756 0.000512146 0.000512146 0.0151585 0.0151585 0.00150058 0.00150058 0.00206466 0.00206466 0.0015257 0.0015257 0.00836351 0.00836351 0.00241688 0.00241688 0.000342344 0.000342344 0.00148692 0.00148692 0.0023983 0.0023983 8.17503e-05 8.17503e-05 0.00117947 0.00117947 0.018972 0.018972 6.4379e-05 6.4379e-05 0.0011977 0.0011977 0.000547188 0.000547188 0.00768207 0.00768207 0.000184381 0.000184381 0.00242166 0.00242166 0.000692937 0.000692937 0.000347958 0.000347958 9.69935e-05 9.69935e-05 0.000565283 0.000565283 0.000125984 0.000125984 0.000195238 0.000195238 0.00239198 0.00239198 0.00252692 0.00252692 0 0 0.00112385 0.00112385 0.00340841 0.00340841 0.00126427 0.00126427 4.69973e-05 4.69973e-05 0.00328357 0.00328357 0.00213156 0.00213156 0.0125299 0.0125299 0.00387173 0.00387173 0.0031163 0.0031163 9.5947e-05 9.5947e-05 0.00146525 0.00146525 0.000938173 0.000938173 0.000477343 0.000477343 0.00127778 0.00127778 0.000904926 0.000904926 0.00155056 0.00155056 0.00996705 0.00996705 0.0214068 0.0214068 0.0170553 0.0170553 0.00738031 0.00738031 0.0115121 0.0115121 0.0040575 0.0040575 0.0023152 0.0023152 0.00210993 0.00210993 0.00187146 0.00187146 0.0016191 0.0016191 0.000450466 0.000450466 0.00049189 0.00049189 2.09128e-06 2.09128e-06 0.000728488 0.000728488 0.000710295 0.000710295 0.000416627 0.000416627 9.95778e-05 9.95778e-05 0.0108417 0.0108417 0.000991821 0.000991821 0.00220199 0.00220199 0.00108083 0.00108083 0.00618097 0.00618097 0.00924495 0.00924495 0.00642139 0.00642139 5.39798e-05 5.39798e-05 0.000148027 0.000148027 0.000125441 0.000125441 0.000181551 0.000181551 2.01335e-05 2.01335e-05 0.00212031 0.00212031 0.0182977 0.0182977 0.0225881 0.0225881 0.0039111 0.0039111 0.00268875 0.00268875 0.00481768 0.00481768 0.0036978 0.0036978 0.00371373 0.00371373 0.00472179 0.00472179 0.00088299 0.00088299 0.00300356 0.00300356 0.00317134 0.00317134 0.00178146 0.00178146 0.00111647 0.00111647 0 0 0.000867455 0.000867455 0.00990051 0.00990051 0.0435001 0.0435001 0.0028863 0.0028863 0.003708 0.003708 0.000509135 0.000509135 0.000915113 0.000915113 0.000689446 0.000689446 0.00261441 0.00261441 0.00028035 0.00028035 0.000219988 0.000219988 0.000158476 0.000158476 0.00317092 0.00317092 0.0208921 0.0208921 0.0211167 0.0211167 0.000133657 0.000133657 0.0209178 0.0209178 0.00136654 0.00136654 0.000485047 0.000485047 0.0011122 0.0011122 0.0013626 0.0013626 0.000149017 0.000149017 0.00725431 0.00725431 0.00144017 0.00144017 0.000937711 0.000937711 0.000509171 0.000509171 0.00643989 0.00643989 0.000760109 0.000760109 0.000144162 0.000144162 0.00229096 0.00229096 0.000401987 0.000401987 0.00415392 0.00415392 0.00240228 0.00240228 0.00146899 0.00146899 1.09508e-06 1.09508e-06 0.000912438 0.000912438 0.000303264 0.000303264 0.000113124 0.000113124 0.0118934 0.0118934 0.000345551 0.000345551 0.00705144 0.00705144 0.000151118 0.000151118 7.25096e-05 7.25096e-05 4.20629e-05 4.20629e-05 0.0199225 0.0199225 0.0067011 0.0067011 0.0001603 0.0001603 0.000104511 0.000104511 0.00378266 0.00378266 0.000715409 0.000715409 0.00142142 0.00142142 0.000286946 0.000286946 0.00542591 0.00542591 0.000148115 0.000148115 0.000929407 0.000929407 0.00223769 0.00223769 0.0142657 0.0142657 0.0108369 0.0108369 0.00577998 0.00577998 0.00615772 0.00615772 0.00803136 0.00803136 0.00605401 0.00605401 0.00212732 0.00212732 0.0076398 0.0076398 0.000698935 0.000698935 0.000439602 0.000439602 0.00189278 0.00189278 0.00059523 0.00059523 0.00257221 0.00257221 0.00140088 0.00140088 0.00586727 0.00586727 0.0119906 0.0119906 0.000389336 0.000389336 0.000235134 0.000235134 0.00211267 0.00211267 0.00459514 0.00459514 0.00109692 0.00109692 0.00129032 0.00129032 0.00128587 0.00128587 0.00721788 0.00721788 0.000173217 0.000173217 0.000249522 0.000249522 0.000772478 0.000772478 0.000381016 0.000381016 0.00177725 0.00177725 0.00450655 0.00450655 0.00526974 0.00526974 0.00203833 0.00203833 0.00768641 0.00768641 0.00960715 0.00960715 0.000760962 0.000760962 0.00549448 0.00549448 0.000115724 0.000115724 0.00385296 0.00385296 0.001811 0.001811 0.00434182 0.00434182 0.00112872 0.00112872 0 0 0.00024582 0.00024582 0.000153106 0.000153106 1.07709e-05 1.07709e-05 0.00235616 0.00235616 0.000179995 0.000179995 0.00405775 0.00405775 0.00129608 0.00129608 0.00162673 0.00162673 0.000130734 0.000130734 0.00362081 0.00362081 0.000795975 0.000795975 0.00100078 0.00100078 0.004443 0.004443 0.00709554 0.00709554 0.00078208 0.00078208 0.00231174 0.00231174 0.00144084 0.00144084 0.000943007 0.000943007 0.00238051 0.00238051 0.0152448 0.0152448 0.00211749 0.00211749 0.00116527 0.00116527 0.00486317 0.00486317 0.00628705 0.00628705 0.00555414 0.00555414 0.00175278 0.00175278 0.000512875 0.000512875 0.000418136 0.000418136 0.00130236 0.00130236 0.000225002 0.000225002 0.00217405 0.00217405 0.000375856 0.000375856 0.00339775 0.00339775 0.00331729 0.00331729 0.000914249 0.000914249 0.00583313 0.00583313 0.00177627 0.00177627 0.000151022 0.000151022 0.00268553 0.00268553 0.00302447 0.00302447 0.000287611 0.000287611 0.000566538 0.000566538 0.00252556 0.00252556 0.00805363 0.00805363 0.00554446 0.00554446 0.00463852 0.00463852 0.0198548 0.0198548 0.00935052 0.00935052 0.001971 0.001971 0.00068413 0.00068413 0.0252454 0.0252454 0.0139706 0.0139706 0.0502699 0.0502699 0.0202034 0.0202034 0.0135593 0.0135593 0.000795105 0.000795105 0.00304083 0.00304083 0.00581876 0.00581876 0.0049579 0.0049579 0.000731751 0.000731751 0 0 0.00211275 0.00211275 0.000683595 0.000683595 0.000406739 0.000406739 0.000407099 0.000407099 0.00352193 0.00352193 0.000334996 0.000334996 0.00179828 0.00179828 0.00122615 0.00122615 0 0 0 0 0.0174366 0.0174366 0.0213222 0.0213222 0.0063356 0.0063356 0.00846356 0.00846356 0.0159798 0.0159798 0.00834172 0.00834172 8.77867e-05 8.77867e-05 7.42004e-06 7.42004e-06 0.00114454 0.00114454 0.00225673 0.00225673 0.000132259 0.000132259 4.60371e-05 4.60371e-05 0.000690671 0.000690671 0.0011156 0.0011156 0.00239034 0.00239034 0.0128939 0.0128939 0.0015551 0.0015551 0.000876251 0.000876251 0.000199129 0.000199129 0.000161225 0.000161225 0.000487054 0.000487054 0.000319313 0.000319313 0.00019353 0.000193