<?xml version="1.0"?>
<VTKFile type="PolyData" version="0.1" byte_order="LittleEndian" >
<PolyData>
<Piece NumberOfPoints="24636" NumberOfVerts="0" NumberOfLines="12318" NumberOfStrips="0" NumberOfPolys="0">
<Points>
<DataArray type="Float32" NumberOfComponents="3" format="ascii">
0.00867279 0.219475 0.0909371 -0.000200055 0.21169 0.0839928 0.114278 0.141137 0.0927937 0.127554 0.152504 0.0912831 0.0160828 0.182243 0.0942154 0.0305629 0.185963 0.094495 0.00456543 0.191902 0.0905402 -0.000200002 0.179171 0.0899667 0.0906975 0.143609 0.0915817 0.081111 0.151814 0.0906368 0.0906975 0.143609 0.0915817 0.081111 0.151814 0.0906368 0.0782539 0.22278 0.0918351 0.0866016 0.236828 0.0945476 0.036498 0.2485 0.0956632 0.0231706 0.2502 0.0940046 0.036498 0.2485 0.0956632 0.0330721 0.2502 0.108649 0.0172843 0.190829 0.0922478 0.0160828 0.182243 0.0942154 0.0173281 0.130737 0.091388 0.032993 0.128931 0.0954755 0.0173281 0.130737 0.091388 0.0332578 0.134811 0.0906989 0.0979293 0.15581 0.0927495 0.114256 0.164678 0.0915949 0.0137138 0.14914 0.097133 0.0179732 0.166053 0.0995898 0.0250248 0.169511 0.0979177 0.0289266 0.169259 0.112391 0.0250248 0.169511 0.0979177 0.0283832 0.159049 0.105332 0.0250248 0.169511 0.0979177 0.0349235 0.160598 0.0927457 0.0250248 0.169511 0.0979177 0.0349235 0.160598 0.0927457 0.0542818 0.193185 0.0928843 0.0634333 0.189404 0.0994724 0.0542818 0.193185 0.0928843 0.0634333 0.189404 0.0994724 0.0542818 0.193185 0.0928843 0.0634333 0.189404 0.0994724 0.0542818 0.193185 0.0928843 0.060791 0.203711 0.0925883 0.0542818 0.193185 0.0928843 0.0699619 0.197504 0.0933462 0.137746 0.227351 0.0923747 0.14913 0.236803 0.102459 0.137746 0.227351 0.0923747 0.147969 0.214104 0.107525 0.137746 0.227351 0.0923747 0.14836 0.225807 0.100602 0.137746 0.227351 0.0923747 0.147067 0.234133 0.0997386 0.137746 0.227351 0.0923747 0.144002 0.234022 0.0911978 0.137746 0.227351 0.0923747 0.144002 0.234022 0.0911978 0.0963576 0.127371 0.0902897 0.0906975 0.143609 0.0915817 0.0963576 0.127371 0.0902897 0.111526 0.146004 0.099774 0.119712 0.199285 0.0918079 0.113706 0.210213 0.0989872 0.119712 0.199285 0.0918079 0.117066 0.215024 0.0909828 0.110081 0.131827 0.0946986 0.111526 0.146004 0.099774 0.110081 0.131827 0.0946986 0.123884 0.132999 0.0986039 0.110081 0.131827 0.0946986 0.114278 0.141137 0.0927937 0.0488073 0.164625 0.0902092 0.0589286 0.166254 0.105235 0.149977 0.145895 0.0943122 0.145844 0.153394 0.101124 0.149977 0.145895 0.0943122 0.1602 0.137618 0.0903932 0.106273 0.188426 0.0907208 0.116879 0.183802 0.0972739 0.106273 0.188426 0.0907208 0.116936 0.18252 0.092427 0.0903156 0.198119 0.0951175 0.0987616 0.213838 0.0933218 0.149285 0.238573 0.090352 0.144002 0.234022 0.0911978 0.149285 0.238573 0.090352 0.144002 0.234022 0.0911978 0.149285 0.238573 0.090352 0.154776 0.2502 0.0952379 0.00831145 0.125095 0.0924803 -0.000200017 0.130658 0.0833178 0.0699619 0.197504 0.0933462 0.0640185 0.217814 0.0971786 0.0699619 0.197504 0.0933462 0.0587641 0.210616 0.092913 0.116768 0.237625 0.090079 0.118761 0.246494 0.0926227 0.116768 0.237625 0.090079 0.122054 0.2502 0.0881508 0.0707378 0.208746 0.0962281 0.0699619 0.197504 0.0933462 0.0707378 0.208746 0.0962281 0.0771744 0.213014 0.101824 0.0707378 0.208746 0.0962281 0.0771744 0.213014 0.101824 0.0707378 0.208746 0.0962281 0.0640185 0.217814 0.0971786 0.0707378 0.208746 0.0962281 0.0640185 0.217814 0.0971786 0.0707378 0.208746 0.0962281 0.0587641 0.210616 0.092913 0.0707378 0.208746 0.0962281 0.0587641 0.210616 0.092913 0.131697 0.228963 0.0916742 0.147067 0.234133 0.0997386 0.0646218 0.234001 0.0939712 0.0660679 0.245755 0.101256 0.0332578 0.134811 0.0906989 0.0379521 0.154614 0.0965297 0.0102138 0.208192 0.0922146 0.00456543 0.191902 0.0905402 0.0102138 0.208192 0.0922146 0.0110393 0.227101 0.109545 0.0102138 0.208192 0.0922146 0.0225975 0.212492 0.101297 0.0102138 0.208192 0.0922146 0.00867279 0.219475 0.0909371 0.0102138 0.208192 0.0922146 -0.000200218 0.216755 0.0896229 0.0413297 0.121526 0.0901137 0.0332578 0.134811 0.0906989 0.0866016 0.236828 0.0945476 0.0989302 0.227825 0.0951703 0.156338 0.236373 0.091798 0.149285 0.238573 0.090352 0.156338 0.236373 0.091798 0.144002 0.234022 0.0911978 0.156338 0.236373 0.091798 0.1602 0.23607 0.104819 0.103514 0.225909 0.0926479 0.0989302 0.227825 0.0951703 0.0312355 0.181375 0.0987357 0.0305629 0.185963 0.094495 0.0812934 0.18518 0.0925388 0.0906503 0.198383 0.1006 0.0812934 0.18518 0.0925388 0.0903156 0.198119 0.0951175 0.0286412 0.147414 0.0935455 0.0332578 0.134811 0.0906989 0.0286412 0.147414 0.0935455 0.0311795 0.152271 0.10031 0.0286412 0.147414 0.0935455 0.0379521 0.154614 0.0965297 0.0286412 0.147414 0.0935455 0.0349235 0.160598 0.0927457 0.0286412 0.147414 0.0935455 0.0349235 0.160598 0.0927457 0.118761 0.246494 0.0926227 0.129106 0.2502 0.0846411 0.0444898 0.191556 0.0965892 0.0305629 0.185963 0.094495 0.0444898 0.191556 0.0965892 0.0542818 0.193185 0.0928843 0.123884 0.132999 0.0986039 0.124869 0.130895 0.101998 0.123884 0.132999 0.0986039 0.124869 0.130895 0.101998 0.0814472 0.168614 0.0911209 0.0862119 0.168844 0.0953752 0.0814472 0.168614 0.0911209 0.0892936 0.178912 0.0966306 0.0814472 0.168614 0.0911209 0.0863927 0.164617 0.0905938 0.060791 0.203711 0.0925883 0.0699619 0.197504 0.0933462 0.0387248 0.162051 0.0909957 0.0573165 0.17067 0.101586 0.116936 0.18252 0.092427 0.119712 0.199285 0.0918079 0.00541386 0.198621 0.0977472 0.0172843 0.190829 0.0922478 0.00541386 0.198621 0.0977472 0.00456543 0.191902 0.0905402 0.00541386 0.198621 0.0977472 0.00456543 0.191902 0.0905402 0.00541386 0.198621 0.0977472 0.00456543 0.191902 0.0905402 0.00541386 0.198621 0.0977472 -0.000200006 0.208214 0.105625 0.00541386 0.198621 0.0977472 -0.000200004 0.206364 0.0880447 0.0892936 0.178912 0.0966306 0.0918347 0.1858 0.0990285 0.0892936 0.178912 0.0966306 0.0812934 0.18518 0.0925388 0.0862119 0.168844 0.0953752 0.0892936 0.178912 0.0966306 0.0862119 0.168844 0.0953752 0.0892936 0.178912 0.0966306 0.0862119 0.168844 0.0953752 0.0863927 0.164617 0.0905938 0.0862119 0.168844 0.0953752 0.0979293 0.15581 0.0927495 0.0862119 0.168844 0.0953752 0.0812934 0.18518 0.0925388 0.0812846 0.152256 0.0952269 0.081111 0.151814 0.0906368 0.0812846 0.152256 0.0952269 0.081111 0.151814 0.0906368 0.0135507 0.135186 0.0944034 0.00831145 0.125095 0.0924803 0.0135507 0.135186 0.0944034 0.00831145 0.125095 0.0924803 0.0135507 0.135186 0.0944034 0.0137138 0.14914 0.097133 0.0135507 0.135186 0.0944034 0.0173281 0.130737 0.091388 0.0135507 0.135186 0.0944034 0.032993 0.128931 0.0954755 0.0135507 0.135186 0.0944034 0.0299798 0.125639 0.100182 0.120266 0.229861 0.0928439 0.116768 0.237625 0.090079 0.0208451 0.197912 0.0968627 0.0102138 0.208192 0.0922146 0.0208451 0.197912 0.0968627 0.0172843 0.190829 0.0922478 0.0208451 0.197912 0.0968627 0.032458 0.203645 0.0943934 0.0208451 0.197912 0.0968627 0.0289185 0.18542 0.103445 0.0208451 0.197912 0.0968627 0.0388856 0.194906 0.0976524 0.0707675 0.140248 0.0922203 0.066166 0.132622 0.091485 0.0707675 0.140248 0.0922203 0.066166 0.132622 0.091485 0.0707675 0.140248 0.0922203 0.066166 0.132622 0.091485 0.0707675 0.140248 0.0922203 0.0706433 0.152946 0.101225 0.0112775 0.177354 0.0909222 0.0250248 0.169511 0.0979177 0.0112775 0.177354 0.0909222 0.0160828 0.182243 0.0942154 0.116879 0.183802 0.0972739 0.116936 0.18252 0.092427 0.116879 0.183802 0.0972739 0.116936 0.18252 0.092427 0.116879 0.183802 0.0972739 0.119712 0.199285 0.0918079 0.0362723 0.176864 0.0994158 0.0471244 0.181979 0.103272 0.0362723 0.176864 0.0994158 0.0289185 0.18542 0.103445 0.0362723 0.176864 0.0994158 0.0312355 0.181375 0.0987357 0.0696273 0.174156 0.0972256 0.0814472 0.168614 0.0911209 0.0696273 0.174156 0.0972256 0.0814472 0.168614 0.0911209 0.0696273 0.174156 0.0972256 0.0642322 0.18331 0.106297 0.0749292 0.232273 0.0946799 0.0782539 0.22278 0.0918351 0.0446984 0.235593 0.0958529 0.0469754 0.240623 0.118111 0.0446984 0.235593 0.0958529 0.046976 0.244126 0.0973556 0.0618837 0.128272 0.0953112 0.066166 0.132622 0.091485 0.0618837 0.128272 0.0953112 0.066166 0.132622 0.091485 0.0618837 0.128272 0.0953112 0.066166 0.132622 0.091485 0.046976 0.244126 0.0973556 0.0660679 0.245755 0.101256 0.046976 0.244126 0.0973556 0.0583994 0.2502 0.101657 0.137996 0.220488 0.0975451 0.131697 0.228963 0.0916742 0.137996 0.220488 0.0975451 0.137746 0.227351 0.0923747 0.137996 0.220488 0.0975451 0.144654 0.227021 0.111385 0.137996 0.220488 0.0975451 0.14836 0.225807 0.100602 0.137996 0.220488 0.0975451 0.14836 0.225807 0.100602 0.111907 0.211017 0.090924 0.120266 0.229861 0.0928439 0.153962 0.142563 0.102825 0.149977 0.145895 0.0943122 0.153962 0.142563 0.102825 0.149345 0.163443 0.112726 0.153962 0.142563 0.102825 0.1602 0.15109 0.0942021 0.153962 0.142563 0.102825 0.1602 0.133424 0.0948535 0.123974 0.148239 0.0965688 0.114278 0.141137 0.0927937 0.123974 0.148239 0.0965688 0.114278 0.141137 0.0927937 0.123974 0.148239 0.0965688 0.127102 0.161448 0.103606 0.123974 0.148239 0.0965688 0.124483 0.160542 0.0979199 0.123974 0.148239 0.0965688 0.142806 0.145299 0.103198 0.123974 0.148239 0.0965688 0.145166 0.142696 0.0918537 0.142052 0.17884 0.0944938 0.143365 0.175624 0.0915692 0.142052 0.17884 0.0944938 0.143365 0.175624 0.0915692 0.142052 0.17884 0.0944938 0.143365 0.175624 0.0915692 0.142052 0.17884 0.0944938 0.152074 0.181292 0.107003 0.142052 0.17884 0.0944938 0.133544 0.189011 0.0988655 0.0486564 0.135357 0.0939057 0.0590173 0.13118 0.103789 0.0746577 0.179976 0.0979401 0.0696273 0.174156 0.0972256 0.0746577 0.179976 0.0979401 0.0918078 0.184426 0.107721 0.0746577 0.179976 0.0979401 0.0768634 0.190894 0.0996464 0.0746577 0.179976 0.0979401 0.0812934 0.18518 0.0925388 0.0746577 0.179976 0.0979401 0.0862119 0.168844 0.0953752 0.142713 0.208937 0.0926258 0.137996 0.220488 0.0975451 0.142713 0.208937 0.0926258 0.137746 0.227351 0.0923747 0.145166 0.142696 0.0918537 0.149977 0.145895 0.0943122 0.145166 0.142696 0.0918537 0.140465 0.132894 0.0939577 0.145166 0.142696 0.0918537 0.140465 0.132
[...]
<PointData Scalars="F_N">
<DataArray type="Float32" Name="F_N" format="ascii">
0.0282723 0.0282723 0.0867276 0.0867276 0.0865124 0.0865124 0.000236097 0.000236097 0.0479754 0.0479754 0.0732173 0.0732173 0.0154397 0.0154397 0.000633652 0.000633652 0.00163715 0.00163715 0.00918035 0.00918035 0.0517668 0.0517668 0.0575747 0.0575747 0.258111 0.258111 0.00203657 0.00203657 0.0276785 0.0276785 0.00407021 0.00407021 0.0379023 0.0379023 0.00918436 0.00918436 0.262622 0.262622 0.222502 0.222502 0.00680231 0.00680231 0.0134236 0.0134236 0.00195129 0.00195129 0.00105648 0.00105648 0.0834927 0.0834927 0.0276103 0.0276103 0.0375166 0.0375166 0.325056 0.325056 0.0585655 0.0585655 0.0112475 0.0112475 0.0104777 0.0104777 0.000895353 0.000895353 0.0312355 0.0312355 0.0239021 0.0239021 0.10952 0.10952 0.106979 0.106979 0.0377823 0.0377823 0.117882 0.117882 0 0 0.00790433 0.00790433 0.00506115 0.00506115 0.000794942 0.000794942 0.0453645 0.0453645 0.0394628 0.0394628 6.77355e-05 6.77355e-05 0.00725243 0.00725243 0.0181224 0.0181224 0.00328371 0.00328371 0.0482727 0.0482727 0.000280725 0.000280725 0.0184279 0.0184279 0.024827 0.024827 0.0474066 0.0474066 0.0311053 0.0311053 0.0597884 0.0597884 0.0101056 0.0101056 0.0765711 0.0765711 0.119292 0.119292 0.0515606 0.0515606 0.0239636 0.0239636 0.000792171 0.000792171 0.0132343 0.0132343 0.0845311 0.0845311 0.131517 0.131517 0.000505623 0.000505623 3.11787e-05 3.11787e-05 0.00909342 0.00909342 0.0511177 0.0511177 0.0763234 0.0763234 0 0 0.0192731 0.0192731 0.0269693 0.0269693 0.00678662 0.00678662 0.0813714 0.0813714 0.131147 0.131147 0.0167666 0.0167666 0.00124969 0.00124969 0.0135706 0.0135706 0.0419509 0.0419509 0.000210356 0.000210356 0.00594071 0.00594071 0.0966449 0.0966449 0.316105 0.316105 0.0787892 0.0787892 0.0281671 0.0281671 0.0456824 0.0456824 0.0224296 0.0224296 0.0454236 0.0454236 0.0394709 0.0394709 0.00183557 0.00183557 0.000392424 0.000392424 4.33188e-05 4.33188e-05 0.00014892 0.00014892 0.00688899 0.00688899 0.000394933 0.000394933 0.000174317 0.000174317 0.00457473 0.00457473 0.0329717 0.0329717 0.129955 0.129955 0.0180765 0.0180765 0.0434989 0.0434989 0.144858 0.144858 0.00714389 0.00714389 0.257698 0.257698 0.0807835 0.0807835 0.00416023 0.00416023 0.0750384 0.0750384 0.0221412 0.0221412 0.144223 0.144223 0.00516709 0.00516709 0.0345389 0.0345389 0.0882486 0.0882486 0.106352 0.106352 0.0295262 0.0295262 0.113998 0.113998 0.00046704 0.00046704 0.0604715 0.0604715 0.188847 0.188847 0.183917 0.183917 0.236019 0.236019 0.0280329 0.0280329 0.0103732 0.0103732 0.0200121 0.0200121 0.0928449 0.0928449 0.0141741 0.0141741 0.05463 0.05463 0.0200601 0.0200601 0.00535354 0.00535354 0.0570322 0.0570322 0.0750777 0.0750777 0.0750777 0.0750777 0.00840367 0.00840367 0.0342635 0.0342635 0.00456537 0.00456537 0.14538 0.14538 0.0678264 0.0678264 0.178915 0.178915 0.00392288 0.00392288 0.00783538 0.00783538 0.000168644 0.000168644 0.174105 0.174105 0.0242517 0.0242517 0.240998 0.240998 0.0365545 0.0365545 0.0404445 0.0404445 0.0043993 0.0043993 0.0942657 0.0942657 0.0168798 0.0168798 0 0 0 0 0.0544117 0.0544117 0.0680447 0.0680447 0.0353727 0.0353727 0.0315971 0.0315971 0.0131513 0.0131513 0.0153141 0.0153141 0.0971755 0.0971755 0.261521 0.261521 0.040603 0.040603 0.0929327 0.0929327 0.0230713 0.0230713 0.0383443 0.0383443 0.158222 0.158222 0.00229673 0.00229673 0.0345061 0.0345061 0.00580813 0.00580813 0.00811799 0.00811799 0.0143741 0.0143741 0.0159913 0.0159913 0.243912 0.243912 0.02964 0.02964 0.00491788 0.00491788 0.116533 0.116533 0.00378626 0.00378626 0.0151724 0.0151724 0.0517557 0.0517557 0.01678 0.01678 0.0385297 0.0385297 0.167825 0.167825 0.167825 0.167825 0.0223675 0.0223675 0.209051 0.209051 0.0762876 0.0762876 0.00294806 0.00294806 0.0433142 0.0433142 0.0689127 0.0689127 9.82587e-06 9.82587e-06 0.0114786 0.0114786 0.0223282 0.0223282 0.163718 0.163718 0.169766 0.169766 0.0272384 0.0272384 0.00238407 0.00238407 0.0721528 0.0721528 0.0344228 0.0344228 0.0421298 0.0421298 0.0112135 0.0112135 0.0535508 0.0535508 0.116082 0.116082 0.0333772 0.0333772 0.0133015 0.0133015 0.0150249 0.0150249 0.0935977 0.0935977 0.115137 0.115137 0.11107 0.11107 0.119044 0.119044 0.0969701 0.0969701 0.132913 0.132913 0.0124034 0.0124034 0.0986015 0.0986015 0.0226076 0.0226076 0.00380564 0.00380564 0.000654793 0.000654793 0.235504 0.235504 0.0562108 0.0562108 0.0290919 0.0290919 0.0578187 0.0578187 0 0 0.00518627 0.00518627 0.00586026 0.00586026 0.0106352 0.0106352 0.0154595 0.0154595 1.22553e-06 1.22553e-06 0.00309779 0.00309779 0.00033659 0.00033659 0.0989434 0.0989434 0.0190589 0.0190589 0.136112 0.136112 0.00261944 0.00261944 0.0239518 0.0239518 0.232981 0.232981 0.100469 0.100469 0.0134401 0.0134401 0.0725064 0.0725064 0.0203988 0.0203988 0 0 0.0396018 0.0396018 0.0274722 0.0274722 0.0562653 0.0562653 0.0106273 0.0106273 0.0319502 0.0319502 0.00688278 0.00688278 0.093069 0.093069 0.000280085 0.000280085 0.08644 0.08644 0.08644 0.08644 0.0440758 0.0440758 0.00483702 0.00483702 0.0108439 0.0108439 0.119948 0.119948 0.0265459 0.0265459 0.0123213 0.0123213 0.105505 0.105505 0.0201417 0.0201417 0.0455095 0.0455095 0.00284606 0.00284606 0.204332 0.204332 0.0183982 0.0183982 0.150353 0.150353 0.00588545 0.00588545 0.134607 0.134607 0.0285672 0.0285672 0.0819571 0.0819571 0.0164921 0.0164921 0.0340846 0.0340846 0.21546 0.21546 0.00614384 0.00614384 0.0463379 0.0463379 0.179418 0.179418 0.0689326 0.0689326 0.0148218 0.0148218 0.0203728 0.0203728 0.00261769 0.00261769 0.0111362 0.0111362 0.0187136 0.0187136 0.111151 0.111151 0.0383381 0.0383381 0.03445 0.03445 0.0221215 0.0221215 0.000236899 0.000236899 0.0109768 0.0109768 0.0594347 0.0594347 0.0697086 0.0697086 0.00044612 0.00044612 0.131947 0.131947 0.0949245 0.0949245 0.00404382 0.00404382 0.00481909 0.00481909 0.128479 0.128479 0.0349255 0.0349255 0.00293191 0.00293191 0.00301032 0.00301032 0.0161026 0.0161026 0.0589009 0.0589009 0.0285237 0.0285237 0.297187 0.297187 0.0183502 0.0183502 0.135237 0.135237 0.0247356 0.0247356 0.0507262 0.0507262 0.0845826 0.0845826 0.167376 0.167376 0.041494 0.041494 0.0787253 0.0787253 0.0955538 0.0955538 0.223303 0.223303 0.0352188 0.0352188 0.0157259 0.0157259 0.0799594 0.0799594 0.0164738 0.0164738 0.0251068 0.0251068 0.0407566 0.0407566 0.11692 0.11692 0.155787 0.155787 0.0425452 0.0425452 0.000950196 0.000950196 0.192344 0.192344 0.129251 0.129251 0.000191806 0.000191806 9.80196e-05 9.80196e-05 0.247255 0.247255 0.0639205 0.0639205 0.14121 0.14121 0.0176283 0.0176283 0.0340993 0.0340993 0.0138764 0.0138764 0.038759 0.038759 0.0905406 0.0905406 0.0302026 0.0302026 0.0710559 0.0710559 0.115011 0.115011 0.0537736 0.0537736 0.0102764 0.0102764 0.562672 0.562672 0.337572 0.337572 0.0180757 0.0180757 0.0205843 0.0205843 0.0262417 0.0262417 0.00333609 0.00333609 0.138976 0.138976 0.029927 0.029927 0.00200247 0.00200247 0.0272481 0.0272481 0.201886 0.201886 0.0290475 0.0290475 0.0311888 0.0311888 0.0636362 0.0636362 0.468638 0.468638 0.0179054 0.0179054 0.0290335 0.0290335 0.000217712 0.000217712 0.0377081 0.0377081 0.0174784 0.0174784 0.0155415 0.0155415 0.00619273 0.00619273 0.0174544 0.0174544 0.150228 0.150228 0.175692 0.175692 0.00526563 0.00526563 0.119326 0.119326 0.0712377 0.0712377 0.0534193 0.0534193 0.566971 0.566971 0.0857005 0.0857005 0.00630946 0.00630946 0.00508345 0.00508345 0.143214 0.143214 0.121231 0.121231 0.0639591 0.0639591 0.162325 0.162325 0.062584 0.062584 0.0898473 0.0898473 0.0457689 0.0457689 0.00203218 0.00203218 0.0515281 0.0515281 0.0355862 0.0355862 0.00210126 0.00210126 0.0149218 0.0149218 0.0159557 0.0159557 0.0673513 0.0673513 0.0113552 0.0113552 0.000377756 0.000377756 0.310211 0.310211 0.0148812 0.0148812 0.0838039 0.0838039 0.00578439 0.00578439 0.0109911 0.0109911 0.00580168 0.00580168 0.00235214 0.00235214 9.38769e-05 9.38769e-05 0.021633 0.021633 0.121499 0.121499 0.13122 0.13122 0.0559348 0.0559348 0.0240655 0.0240655 0.207934 0.207934 0.00266948 0.00266948 0.0043811 0.0043811 0.0596294 0.0596294 0.0167361 0.0167361 0.0271373 0.0271373 0.000344885 0.000344885 0.183318 0.183318 0.000841059 0.000841059 0.013708 0.013708 0.147846 0.147846 0.0444014 0.0444014 0.346961 0.346961 0.121484 0.121484 0.318625 0.318625 0.13985 0.13985 0.0206165 0.0206165 0.184375 0.184375 0.00213885 0.00213885 0 0 0.0846516 0.0846516 0.079147 0.079147 0.0301915 0.0301915 0.0615876 0.0615876 0.0656845 0.0656845 0.0112891 0.0112891 0.0129892 0.0129892 0.0342603 0.0342603 0.187217 0.187217 0.021153 0.021153 0.123504 0.123504 0.00688638 0.00688638 0.160338 0.160338 0.0217787 0.0217787 0.122337 0.122337 0.0056061 0.0056061 0.139322 0.139322 0.106627 0.106627 0.0290629 0.0290629 0.00879879 0.00879879 4.14902e-06 4.14902e-06 0.133048 0.133048 0.213339 0.213339 0.00233366 0.00233366 0.0216249 0.0216249 0.00076037 0.00076037 0.0536673 0.0536673 0.0203853 0.0203853 0.0119361 0.0119361 0.0489285 0.0489285 0.0545254 0.0545254 0.00516895 0.00516895 0.0695267 0.0695267 0.00076715 0.00076715 0.00542261 0.00542261 0.0419849 0.0419849 0.00820586 0.00820586 0.00397242 0.00397242 0.160469 0.160469 0.0153484 0.0153484 0.0314983 0.0314983 0.0541167 0.0541167 0.00476274 0.00476274 0.00547202 0.00547202 0.0463689 0.0463689 0.0402277 0.0402277 0.129564 0.129564 0.183417 0.183417 0.187044 0.187044 0.0119503 0.0119503 0.0110144 0.0110144 0.00312678 0.00312678 0.00665419 0.00665419 0.190475 0.190475 0.0671941 0.0671941 0.0183871 0.0183871 0.00512481 0.00512481 0.0205381 0.0205381 0.00462659 0.00462659 0.0246601 0.0246601 0.122309 0.122309 0.00477437 0.00477437 0.0106945 0.0106945 0.126634 0.126634 0.0140348 0.0140348 0.0499005 0.0499005 0.0799695 0.0799695 0.000576754 0.000576754 0.0801495 0.0801495 0.0966666 0.0966666 0.0761445 0.0761445 0.00227672 0.00227672 0.00885985 0.00885985 0.0142098 0.0142098 0.0108333 0.0108333 0.014836 0.014836 0.032771 0.032771 0.0272937 0.0272937 0.193583 0.193583 0.00287849 0.00287849 0.00147701 0.00147701 0.00900939 0.00900939 0.135497 0.135497 0.00286746 0.00286746 0.162451 0.162451 0.0873054 0.0873054 0.199159 0.199159 0.0579047 0.0579047 0.144329 0.144329 0.316765 0.316765 0.148548 0.148548 0.00344464 0.00344464 0.046296 0.046296 0.0118464 0.0118464 0.144866 0.144866 0.0208843 0.0208843 0.176695 0.176695 0.255502 0.255502 0.0124458 0.0124458 0.0150212 0.0150212 0.109668 0.109668 0.0403502 0.0403502 0.0018686 0.0018686 0.000999512 0.000999512 0.052478 0.052478 0.070712 0.070712 0.0404206 0.0404206 0.0911874 0.0911874 0.0487428 0.0487428 0.105036 0.105036 0.0117374 0.0117374 0.000839038 0.000839038 0.00675042 0.00675042 0.0288489 0.0288489 0.00237925 0.00237925 0.0600632 0.0600632 0.0825127 0.0825127 0.0594033 0.0594033 0.0837891 0.0837891 0.0513136 0.0513136 0.0250962 0.0250962 0.0703799 0.0703799 0.0187953 0.0187953 0.0567408 0.0567408 0.102992 0.102992 0.0696435 0.0696435 0.130645 0.130645 0.0442267 0.0442267 0.00774038 0.00774038 0.00291064 0.00291064 0.0429048 0.0429048 0.0567083 0.0567083 0.0063072 0.0063072 0.0187757 0.0187757 0.0571538 0.0571538 0.172344 0.172344 0.0145994 0.0145994 0.00166202 0.00166202 0.0222256 0.0222256 0.0181424 0.0181424 0.000232251 0.000232251 0.00802177 0.00802177 0.0769805 0.0769805 0.0520301 0.0520301 0.0238848 0.0238848 0.000160243 0.000160243 0.00506147 0.00506147 0.110013 0.110013 0.0195813 0.0195813 0.0113086 0.0113086 0.0543609 0.0543609 0.00135151 0.00135151 0.0117543 0.0117543 0.0348996 0.0348996 0.0342335 0.0342335 0.017046 0.017046 0.00696724 0.00696724 0.16257 0.16257 0.0191274 0.0191274 0.117367 0.117367 0.012741 0.012741 0.00106974 0.00106974 0.00119217 0.00119217 0.0202403 0.0202403 0.248264 0.248264 0.0706014 0.0706014 0.0200743 0.0200743 0.0476331 0.0476331 0.0284952 0.0284952 0.00470959 0.00470959 0.0478645 0.0478645 0.0720939 0.0720939 0.0240843 0.0240843 0.0326218 0.0326218 0.0263799 0.0263799 0.0158311 0.0158311 0.00879304 0.00879304 0.0663351 0.0663351 0.0156619 0.0156619 0.113569 0.113569 0.0251236 0.0251236 0.0161375 0.0161375 0.192778 0.192778 0.178203 0.178203 0.00431572 0.00431572 0.0823068 0.0823068 0.0202714 0.0202714 0.126621 0.126621 0.0108536 0.0108536 0.000140278 0.000140278 0.0689106 0.0689106 0.00498898 0.00498898 0.101911 0.101911 0.0762569 0.0762569 0.0445999 0.0445999 0.0749287 0.0749287 0.128226 0.128226 0.43036 0.43036 0.452737 0.452737 0.00442854 0.00442854 0.00953036 0.00953036 0.0464901 0.0464901 0.0527812 0.0527812 0.123197 0.123197 0.042437 0.042437 0.0305985 0.0305985 0.00150706 0.00150706 0.00799544 0.00799544 0.0174511 0.0174511 0.16671 0.16671 0.0116069 0.0116069 0.0439079 0.0439079 0.0336334 0.0336334 0.000362708 0.000362708 0.015134 0.015134 0.0764097 0.0764097 0.0472915 0.0472915 0.0429759 0.0429759 0.0113129 0.0113129 0.251703 0.251703 0.145398 0.145398 0.254539 0.254539 0.351813 0.351813 0.409554 0.409554 0.0410571 0.0410571 0.0179772 0.0179772 0.00200883 0.00200883 0.000347035 0.000347035 0.0307913 0.0307913 0.0381367 0.0381367 0.0585713 0.0585713 0.0568905 0.0568905 0.0169324 0.0169324 0.000139694 0.000139694 0.0425513 0.0425513 0.0328044 0.0328044 0.0139923 0.0139923 0.00436013 0.00436013 0.159763 0.159763 0.0195996 0.0195996 0.138232 0.138232 0.0795002 0.0795002 0.0177307 0.0177307 0.0259008 0.0259008 0.0674054 0.0674054 0.0966476 0.0966476 0.00145129 0.00145129 0.0540189 0.0540189 0.0109878 0.0109878 0.154483 0.154483 0.00557734 0.00557734 0.000191584 0.000191584 0.0229519 0.0229519 0.000786088 0.000786088 0.0588347 0.0588347 0.0195823 0.0195823 0.10721 0.10721 0.107506 0.107506 0.0180554 0.0180554 0.00530427 0.00530427 0.0537456 0.0537456 0.073395 0.073395 0.00566266 0.00566266 0.00933922 0.00933922 0.0571592 0.0571592 0.0089561 0.0089561 0.0202685 0.0202685 0.0100574 0.0100574 0.0658126 0.0658126 0.0698842 0.0698842 0.18467 0.18467 0.0436219 0.0436219 0.0449175 0.0449175 0.0103319 0.0103319 0.00664412 0.00664412 0.0305174 0.0305174 0.0196421 0.0196421 0.0280013 0.0280013 0.0468551 0.0468551 0.0487353 0.0487353 0.140363 0.140363 0.0185426 0.0185426 0.0181937 0.0181937 0.00852092 0.00852092 0.000124721 0.000124721 0.0135777 0.0135777 0.186515 0.186515 0.12815 0.12815 0.191099 0.191099 0.00573866 0.00573866 0.0119106 0.0119106 0.000556638 0.000556638 0.00789262 0.00789262 0.00737773 0.00737773 0.000731869 0.000731869 0.0996332 0.0996332 0.113476 0.113476 0.0423728 0.0423728 0.0314104 0.0314104 0.0537941 0.0537941 0.047925 0.047925 0.132816 0.132816 0.0613617 0.0613617 0.0144041 0.0144041 0.206509 0.206509 0.00244925 0.00244925 0 0 0.00360657 0.00360657 0.00563033 0.00563033 0.0125619 0.0125619 0.0029828 0.0029828 0.0715502 0.0715502 0.00662797 0.00662797 0.0334759 0.0334759 0.0595221 0.0595221 0.000862503 0.000862503 0.0168364 0.0168364 0.00236436 0.00236436 0.00308987 0.00308987 0.0187061 0.0187061 0.0237845 0.0237845 0.0391447 0.0391447 0.0253275 0.0253275 0.00153548 0.00153548 0.00763593 0.00763593 0.102609 0.102609 0.0965335 0.0965335 0.0562081 0.0562081 0.0488007 0.0488007 0.00703011 0.00703011 0.0167016 0.0167016 0.00982942 0.00982942 0.0223712 0.0223712 0.097515 0.097515 0.0248882 0.0248882 0.0788037 0.0788037 0.00789178 0.00789178 0.0436684 0.0436684 0.00262988 0.00262988 0.0100522 0.0100522 0.0626151 0.0626151 0.025756 0.025756 0.0220358 0.0220358 0.0528425 0.0528425 0.0978257 0.0978257 0.0462474 0.0462474 0.0340378 0.0340378 0.108932 0.108932 0.197101 0.197101 0.18452 0.18452 0.029865 0.029865 0.00817338 0.00817338 0.0665421 0.0665421 0.231997 0.231997 0.207217 0.207217 0.0364675 0.0364675 0.0858884 0.0858884 0.0607919 0.0607919 0.00656614 0.00656614 0.0730916 0.0730916 0.0800847 0.0800847 0.0487085 0.0487085 0.0178751 0.0178751 0.0129739 0.0129739 0.197346 0.197346 0.0824256 0.0824256 0.0275966 0.0275966 0.0700787 0.0700787 0.00951182 0.00951182 0.00139821 0.00139821 0.0427988 0.0427988 0.00867315 0.00867315 0.0264557 0.0264557 0.0120495 0.0120495 0.0431466 0.0431466 0.00276988 0.00276988 0.0376308 0.0376308 0.0137493 0.0137493 0.0369421 0.0369421 0.0192411 0.0192411 0.0438365 0.0438365 0.036337 0.036337 0.0162567 0.0162567 0.016833 0.016833 0.0153249 0.0153249 0.0322069 0.0322069 0.0036259 0.0036259 0.0445732 0.0445732 0.121476 0.121476 0.0409369 0.0409369 0.00240977 0.00240977 0.00604117 0.00604117 0.0454578 0.0454578 0.0180224 0.0180224 0.0196213 0.0196213 0.134541 0.134541 0.435358 0.435358 0 0 0.0207756 0.0207756 3.46656e-06 3.46656e-06 0.119055 0.119055 0.182974 0.182974 0.00868781 0.00868781 0.0101599 0.0101599 0.00524671 0.00524671 0.0945612 0.0945612 0.392452 0.392452 0.0270977 0.0270977 0.0108958 0.0108958 0.00434158 0.00434158 0.00079893 0.00079893 0.21477 0.21477 0.170936 0.170936 0.0173507 0.0173507 0.0396008 0.0396008 0.0702626 0.0702626 0.122829 0.122829 0.0952254 0.0952254 0.0970501 0.0970501 0.0158668 0.0158668 0.0193337 0.0193337 0.0712487 0.0712487 0.182164 0.182164 0.164769 0.164769 0.00669545 0.00669545 0.000436349 0.000436349 0.635385 0.635385 0.0304799 0.0304799 0.0538154 0.0538154 0.000400381 0.000400381 0.131789 0.131789 0.00949882 0.00949882 0.00539261 0.00539261 0.0130595 0.0130595 0.000702333 0.000702333 0.00150327 0.00150327 0.00280326 0.00280326 0.000107782 0.000107782 0 0 0 0 0.0723921 0.0723921 0.0247931 0.0247931 0.241296 0.241296 0.000240456 0.000240456 0.0473961 0.0473961 0.0759963 0.0759963 0.00144357 0.00144357 0.00705239 0.00705239 0.0525448 0.0525448 0.0399816 0.0399816 0.0513298 0.0513298 0.00978502 0.00978502 0.0515526 0.0515526 0.0114732 0.0114732 0.18525 0.18525 0.0040236 0.0040236 0.00230688 0.00230688 0.018258 0.018258 0.271437 0.271437 0.107971 0.107971 0.466199 0.466199 0.145156 0.145156 0.0404262 0.0404262 0.00083275 0.00083275 0.012115 0.012115 0.0225316 0.0225316 0.0375347 0.0375347 0.024654 0.024654 0.0534839 0.0534839 0.267648 0.267648 0.0462332 0.0462332 0.0205351 0.0205351 0.268852 0.268852 0.00376241 0.00376241 0.00114303 0.00114303 0.000168079 0.000168079 0.0019909 0.0019909 0.103426 0.103426 0.0446753 0.0446753 0.0150394 0.0150394 0.0276767 0.0276767 0.151781 0.151781 0.0402655 0.0402655 0.00957051 0.00957051 0.011521 0.011521 0.0579082 0.0579082 0.00534683 0.00534683 0.0220481 0.0220481 0.113044 0.113044 0.0143587 0.0143587 0.123197 0.123197 0.00605336 0.00605336 0.0619333 0.0619333 0.00186843 0.00186843 0.0291763 0.0291763 0.00493262 0.00493262 0.0143837 0.0143837 0.00116169 0.00116169 0.013203 0.013203 0.102495 0.102495 0.0510386 0.0510386 0.168427 0.168427 0.244731 0.244731 0.208308 0.208308 0.0300107 0.0300107 0.0649758 0.0649758 0.0130125 0.0130125 0.165205 0.165205 0.0667736 0.0667736 0.0658851 0.0658851 0.000629476 0.000629476 0.0609501 0.0609501 0.0331106 0.0331106 0.0291435 0.0291435 0.052329 0.052329 0.0379375 0.0379375 0.00114137 0.00114137 0.00102566 0.00102566 0.0138378 0.0138378 0.0304311 0.0304311 0.109268 0.109268 0.245993 0.245993 0.00520041 0.00520041 0.000144186 0.000144186 0.0199137 0.0199137 0.084869 0.084869 0.00874868 0.00874868 4.01625e-05 4.01625e-05 0.00764705 0.00764705 0.149507 0.149507 0.00504623 0.00504623 0.00482168 0.00482168 0.0024614 0.0024614 0.00854154 0.00854154 0.00432745 0.00432745 0.0358434 0.0358434 0.00779985 0.00779985 0.0191412 0.0191412 0.0472216 0.0472216 0.201351 0.201351 0.0805852 0.0805852 0.0307014 0.0307014 0.238701 0.238701 0.0022804 0.0022804 0.00487998 0.00487998 0.131089 0.131089 0.00490586 0.00490586 0.0128799 0.0128799 0.0673039 0.0673039 0.00469633 0.00469633 0.0266942 0.0266942 0.00366289 0.00366289 0.00343527 0.00343527 0.06059 0.06059 0.11819 0.11819 0.0457378 0.0457378 0.0110174 0.0110174 0.0158503 0.0158503 0.147568 0.147568 0.00442575 0.00442575 0.164781 0.164781 0.0126322 0.0126322 0.00774236 0.00774236 0.0163648 0.0163648 0.0407386 0.0407386 0.0272451 0.0272451 0.0121294 0.0121294 0.0541063 0.0541063 0.0523584 0.0523584 0.0366977 0.0366977 0.00727948 0.00727948 0.000213383 0.000213383 0.000257097 0.000257097 0.0574193 0.0574193 0.00408117 0.00408117 0.015789 0.015789 0.0104283 0.0104283 0.13245 0.13245 0.0246548 0.0246548 0.00636697 0.00636697 0.000180857 0.000180857 0.0166236 0.0166236 0.00493559 0.00493559 0.0197717 0.0197717 0.0288932 0.0288932 0.0111526 0.0111526 0.0028429