<?xml version="1.0"?>
<VTKFile type="PolyData" version="0.1" byte_order="LittleEndian" >
<PolyData>
<Piece NumberOfPoints="21418" NumberOfVerts="0" NumberOfLines="10709" NumberOfStrips="0" NumberOfPolys="0">
<Points>
<DataArray type="Float32" NumberOfComponents="3" format="ascii">
0.115811 0.172363 0.0339914 0.112173 0.181965 0.0256205 0.115811 0.172363 0.0339914 0.109491 0.183748 0.0290433 0.115811 0.172363 0.0339914 0.109491 0.183748 0.0290433 0.0713154 0.151634 0.017047 0.0887209 0.15825 0.0185892 0.0730237 0.157237 0.00448609 0.0687619 0.169276 -0.000200101 0.07208 0.178541 0.0131462 0.0594963 0.182426 0.0159718 0.07208 0.178541 0.0131462 0.0724792 0.191691 0.0132353 0.07208 0.178541 0.0131462 0.068673 0.188551 0.00783737 0.07208 0.178541 0.0131462 0.068673 0.188551 0.00783737 0.0214379 0.146719 0.0263126 0.0341438 0.159481 0.0252616 0.0214379 0.146719 0.0263126 0.0111807 0.162522 0.0272331 0.0214379 0.146719 0.0263126 0.00645939 0.162472 0.0116566 0.0214379 0.146719 0.0263126 0.0291242 0.146742 0.0282141 0.0214379 0.146719 0.0263126 0.0291242 0.146742 0.0282141 0.0214379 0.146719 0.0263126 0.0291242 0.146742 0.0282141 0.0214379 0.146719 0.0263126 0.0134755 0.123461 0.0333497 0.0682463 0.170203 0.0192141 0.0720499 0.181989 0.0256522 0.0682463 0.170203 0.0192141 0.0544344 0.186313 0.0193483 0.0682463 0.170203 0.0192141 0.087892 0.166979 0.0100161 0.0682463 0.170203 0.0192141 0.072071 0.167461 0.0302739 0.0682463 0.170203 0.0192141 0.072071 0.167461 0.0302739 0.122789 0.163889 0.0240237 0.112173 0.181965 0.0256205 0.122789 0.163889 0.0240237 0.123242 0.15635 0.0323145 0.146541 0.133852 0.00436464 0.148601 0.146497 -0.00020022 0.146541 0.133852 0.00436464 0.1602 0.131896 0.00455621 0.0366122 0.137657 0.0181358 0.0431664 0.150434 0.01677 0.0744313 0.200753 0.0159268 0.0853558 0.216197 0.0196844 0.0744313 0.200753 0.0159268 0.0598368 0.212877 0.0208959 0.0744313 0.200753 0.0159268 0.0857195 0.202761 0.0188987 0.0353825 0.136883 0.0270637 0.0180864 0.1401 0.0445606 0.0353825 0.136883 0.0270637 0.0195262 0.128573 0.0346225 0.0279128 0.237684 0.00449874 0.0223319 0.2502 0.00309898 0.0373164 0.163693 0.0118104 0.0343551 0.180244 0.00888534 0.0373164 0.163693 0.0118104 0.0310264 0.16132 -0.0002 0.0288128 0.167737 0.010705 0.0460901 0.182909 0.0014995 0.0288128 0.167737 0.010705 0.0274235 0.159495 -0.000200115 0.134991 0.173022 0.0295171 0.141061 0.186508 0.027385 0.134991 0.173022 0.0295171 0.146328 0.183612 0.0211899 0.134991 0.173022 0.0295171 0.129713 0.180938 0.0264752 0.134991 0.173022 0.0295171 0.148368 0.170792 0.0248262 0.134991 0.173022 0.0295171 0.148368 0.170792 0.0248262 0.134991 0.173022 0.0295171 0.140435 0.167928 0.0421873 0.134991 0.173022 0.0295171 0.14303 0.175582 0.0339267 0.134991 0.173022 0.0295171 0.123242 0.15635 0.0323145 0.134991 0.173022 0.0295171 0.133316 0.163094 0.0326238 0.147395 0.217197 0.0142297 0.1602 0.212714 0.0118063 0.0417005 0.220521 0.00764895 0.0279128 0.237684 0.00449874 0.0417005 0.220521 0.00764895 0.0564336 0.225063 0.0111302 0.0587621 0.14515 0.00967094 0.0681633 0.161431 0.0200613 0.0587621 0.14515 0.00967094 0.0511085 0.154016 0.00463692 0.125547 0.12322 0.0169355 0.141231 0.120422 0.0204202 0.125547 0.12322 0.0169355 0.141231 0.120422 0.0204202 0.069743 0.123305 0.00919565 0.0834747 0.124986 0.0051378 0.15019 0.16905 0.0166815 0.144291 0.180803 0.00730279 0.0906088 0.218277 0.0103371 0.0819196 0.219698 -0.000200249 0.139345 0.195012 0.00914685 0.122616 0.210712 0.011544 0.128867 0.201373 0.0261411 0.123891 0.196717 0.037532 0.0625538 0.237585 0.0228989 0.0556197 0.241027 0.0192957 0.0625538 0.237585 0.0228989 0.0766641 0.244469 0.0229765 0.0625538 0.237585 0.0228989 0.0496553 0.224779 0.0387031 0.0625538 0.237585 0.0228989 0.0532907 0.238884 0.0377312 0.069685 0.120925 0.0238654 0.0853071 0.121371 0.0213477 0.069685 0.120925 0.0238654 0.0902369 0.12272 0.0306236 0.069685 0.120925 0.0238654 0.0631767 0.127938 0.0349135 0.069685 0.120925 0.0238654 0.0631767 0.127938 0.0349135 0.069685 0.120925 0.0238654 0.0594155 0.127019 0.0304742 0.069685 0.120925 0.0238654 0.0750966 0.130869 0.0318368 0.069685 0.120925 0.0238654 0.0750966 0.130869 0.0318368 0.069685 0.120925 0.0238654 0.0543015 0.125187 0.0404752 0.0359502 0.13805 0.00149927 0.0206987 0.152823 0.00149976 0.0359502 0.13805 0.00149927 0.0380145 0.151321 -0.000200384 0.0359502 0.13805 0.00149927 0.0493776 0.137779 -0.000200375 0.0663828 0.176445 0.0239059 0.0682463 0.170203 0.0192141 0.0663828 0.176445 0.0239059 0.0594963 0.182426 0.0159718 0.0663828 0.176445 0.0239059 0.0720499 0.181989 0.0256522 0.0663828 0.176445 0.0239059 0.0544344 0.186313 0.0193483 0.0663828 0.176445 0.0239059 0.0543176 0.185292 0.0292253 0.129128 0.130375 0.00338281 0.146284 0.120888 0.00322622 0.129128 0.130375 0.00338281 0.146312 0.130517 0.0117499 0.109229 0.120867 0.0321719 0.128045 0.132129 0.0319007 0.0239826 0.122292 0.00594581 0.0353395 0.125486 0.0110234 0.0239826 0.122292 0.00594581 0.0214551 0.110385 -0.000200093 0.149697 0.207751 0.00736127 0.139345 0.195012 0.00914685 0.149697 0.207751 0.00736127 0.141225 0.220504 0.00465665 0.149697 0.207751 0.00736127 0.1602 0.199003 0.00866677 0.149697 0.207751 0.00736127 0.1602 0.216378 0.00540908 0.136032 0.160606 0.00330053 0.139514 0.177713 0.00149959 0.136032 0.160606 0.00330053 0.143788 0.172393 0.00773738 0.136032 0.160606 0.00330053 0.149205 0.168153 0.0101583 0.136032 0.160606 0.00330053 0.139001 0.16142 0.0110589 0.136032 0.160606 0.00330053 0.130867 0.172664 -0.000200181 0.103275 0.213047 0.0232467 0.112919 0.221168 0.0246355 0.103275 0.213047 0.0232467 0.112919 0.221168 0.0246355 0.103275 0.213047 0.0232467 0.105182 0.223058 0.0329696 0.122155 0.176174 0.0333683 0.115811 0.172363 0.0339914 0.122155 0.176174 0.0333683 0.115811 0.172363 0.0339914 0.122155 0.176174 0.0333683 0.109491 0.183748 0.0290433 0.122155 0.176174 0.0333683 0.109025 0.189403 0.03561 0.0710641 0.148361 0.0146074 0.0587621 0.14515 0.00967094 0.0710641 0.148361 0.0146074 0.0743546 0.157372 0.007824 0.0710641 0.148361 0.0146074 0.0743546 0.157372 0.007824 0.0710641 0.148361 0.0146074 0.0804497 0.15774 0.0130144 0.0710641 0.148361 0.0146074 0.0730237 0.157237 0.00448609 0.0710641 0.148361 0.0146074 0.0713154 0.151634 0.017047 0.021097 0.206546 0.0126021 0.0343331 0.21597 0.0164942 0.021097 0.206546 0.0126021 0.00958363 0.210995 0.0231901 0.021097 0.206546 0.0126021 0.0164526 0.216442 0.0180227 0.021097 0.206546 0.0126021 0.0164526 0.216442 0.0180227 0.021097 0.206546 0.0126021 0.0189412 0.210526 0.00899544 0.021097 0.206546 0.0126021 0.0189412 0.210526 0.00899544 0.021097 0.206546 0.0126021 0.0285499 0.193362 0.0102938 0.021097 0.206546 0.0126021 0.0298321 0.194765 0.0162902 0.119481 0.200054 0.0249672 0.128867 0.201373 0.0261411 0.119481 0.200054 0.0249672 0.128867 0.201373 0.0261411 0.119481 0.200054 0.0249672 0.134137 0.19552 0.0340868 0.119481 0.200054 0.0249672 0.106738 0.197146 0.0325742 0.119481 0.200054 0.0249672 0.106738 0.197146 0.0325742 0.0670444 0.188893 0.00465668 0.0854428 0.181425 0.00149958 0.123773 0.209203 0.0280851 0.128867 0.201373 0.0261411 0.123773 0.209203 0.0280851 0.128867 0.201373 0.0261411 0.123773 0.209203 0.0280851 0.112919 0.221168 0.0246355 0.123773 0.209203 0.0280851 0.118014 0.210051 0.0358248 0.123773 0.209203 0.0280851 0.118014 0.210051 0.0358248 0.123773 0.209203 0.0280851 0.123891 0.196717 0.037532 0.123773 0.209203 0.0280851 0.134137 0.19552 0.0340868 0.123773 0.209203 0.0280851 0.112019 0.195448 0.0367717 0.123773 0.209203 0.0280851 0.110518 0.204179 0.0394914 0.0396503 0.179825 0.0171922 0.0568656 0.181243 0.0117919 0.0396503 0.179825 0.0171922 0.0453786 0.191116 0.0137907 0.0260724 0.228543 0.0172615 0.0279128 0.237684 0.00449874 0.0853558 0.216197 0.0196844 0.0906088 0.218277 0.0103371 0.115707 0.148341 0.0341852 0.122789 0.163889 0.0240237 0.115707 0.148341 0.0341852 0.123242 0.15635 0.0323145 0.115707 0.148341 0.0341852 0.125132 0.151935 0.037313 0.115707 0.148341 0.0341852 0.102044 0.151328 0.0343661 0.0593895 0.201498 0.0216644 0.0598368 0.212877 0.0208959 0.0593895 0.201498 0.0216644 0.0598368 0.212877 0.0208959 0.0593895 0.201498 0.0216644 0.076897 0.203152 0.0381416 0.0493506 0.126259 0.0239734 0.0366122 0.137657 0.0181358 0.0493506 0.126259 0.0239734 0.0560339 0.130779 0.0115463 0.0493506 0.126259 0.0239734 0.0599986 0.131732 0.0225534 0.0493506 0.126259 0.0239734 0.0599986 0.131732 0.0225534 0.0493506 0.126259 0.0239734 0.069685 0.120925 0.0238654 0.0493506 0.126259 0.0239734 0.0594155 0.127019 0.0304742 0.0493506 0.126259 0.0239734 0.0538121 0.132628 0.0362221 0.0720372 0.202878 0.0327488 0.0758163 0.221491 0.0242609 0.0720372 0.202878 0.0327488 0.06932 0.223592 0.033624 0.0720372 0.202878 0.0327488 0.0809516 0.211902 0.0386943 0.0720372 0.202878 0.0327488 0.0809516 0.211902 0.0386943 0.0474717 0.159962 0.0179402 0.0373164 0.163693 0.0118104 0.0474717 0.159962 0.0179402 0.0577517 0.162175 0.00925492 0.0427817 0.164613 0.00583398 0.0373164 0.163693 0.0118104 0.0427817 0.164613 0.00583398 0.0460901 0.182909 0.0014995 0.0427817 0.164613 0.00583398 0.0577517 0.162175 0.00925492 0.0427817 0.164613 0.00583398 0.0446606 0.176693 -0.000200047 0.136584 0.200335 0.0247538 0.128867 0.201373 0.0261411 0.136584 0.200335 0.0247538 0.128867 0.201373 0.0261411 0.136584 0.200335 0.0247538 0.147243 0.212863 0.0299552 0.136584 0.200335 0.0247538 0.14854 0.192201 0.0137691 0.136584 0.200335 0.0247538 0.141061 0.186508 0.027385 0.136584 0.200335 0.0247538 0.151508 0.204391 0.0282207 0.136192 0.127937 0.0150364 0.129128 0.130375 0.00338281 0.136192 0.127937 0.0150364 0.141231 0.120422 0.0204202 0.136192 0.127937 0.0150364 0.141231 0.120422 0.0204202 0.136192 0.127937 0.0150364 0.146312 0.130517 0.0117499 0.136192 0.127937 0.0150364 0.146312 0.130517 0.0117499 0.0750966 0.130869 0.0318368 0.08809 0.130934 0.0312704 0.0750966 0.130869 0.0318368 0.0851795 0.140428 0.0352337 0.0137948 0.171544 0.0284126 0.0137172 0.185482 0.0247516 0.0137948 0.171544 0.0284126 0.017288 0.173224 0.0363386 0.013
[...]
<PointData Scalars="F_N">
<DataArray type="Float32" Name="F_N" format="ascii">
0.0104485 0.0104485 0.0450178 0.0450178 0.0397897 0.0397897 0.0384683 0.0384683 0.0916904 0.0916904 0.0271263 0.0271263 0.00643187 0.00643187 0.00110648 0.00110648 0.0448906 0.0448906 0.00594792 0.00594792 0.0379379 0.0379379 0.00146391 0.00146391 0.740098 0.740098 0.105997 0.105997 0.129781 0.129781 0.0347677 0.0347677 0.0716121 0.0716121 0.0347326 0.0347326 0.0284906 0.0284906 0.00838497 0.00838497 0.0370104 0.0370104 0.0168972 0.0168972 0.0328609 0.0328609 0.193993 0.193993 0 0 0.0693569 0.0693569 0.00633538 0.00633538 0.0209756 0.0209756 0.0148355 0.0148355 0.0508292 0.0508292 0.0214391 0.0214391 0.000295014 0.000295014 0.00513679 0.00513679 0.000438779 0.000438779 0.104675 0.104675 0.103202 0.103202 0.0056134 0.0056134 0.00103154 0.00103154 0.0548982 0.0548982 0.151413 0.151413 0.0227338 0.0227338 0.0199763 0.0199763 0.00215562 0.00215562 0.0187621 0.0187621 0.186316 0.186316 0 0 0.0659414 0.0659414 0.00759478 0.00759478 0.0417448 0.0417448 0.0723445 0.0723445 0.00882122 0.00882122 0.0352224 0.0352224 0.200391 0.200391 0.00837375 0.00837375 0.223978 0.223978 0.00294451 0.00294451 0.00650134 0.00650134 0.0342296 0.0342296 0.032379 0.032379 0.00072028 0.00072028 0.0160113 0.0160113 0.279543 0.279543 0.0734855 0.0734855 0.0492203 0.0492203 0.0436402 0.0436402 0.153695 0.153695 0.0128133 0.0128133 0.0128133 0.0128133 0.0029241 0.0029241 0.000935011 0.000935011 0.347849 0.347849 0.346978 0.346978 0.0178528 0.0178528 0.00661632 0.00661632 0.150171 0.150171 0.0797622 0.0797622 0.0402768 0.0402768 0.00176752 0.00176752 0.00943532 0.00943532 0.00567326 0.00567326 0.066623 0.066623 0.0848608 0.0848608 0.00311487 0.00311487 0.0341976 0.0341976 0 0 0 0 0.0151713 0.0151713 0.0748789 0.0748789 0.0236734 0.0236734 0.00746669 0.00746669 0.160363 0.160363 0.325668 0.325668 0.088072 0.088072 0.00153078 0.00153078 0.197053 0.197053 0.00219285 0.00219285 0.00568095 0.00568095 0.0530267 0.0530267 0.0331953 0.0331953 0.15753 0.15753 0.0379243 0.0379243 0.000369093 0.000369093 0.0221067 0.0221067 0.151621 0.151621 0.0611937 0.0611937 0.0102846 0.0102846 0.0281347 0.0281347 0.113526 0.113526 0.0458017 0.0458017 0.106679 0.106679 0.011038 0.011038 0.00473751 0.00473751 0.0179241 0.0179241 0.0130737 0.0130737 0.0554758 0.0554758 0.00192684 0.00192684 0.102415 0.102415 0.0910851 0.0910851 0.22938 0.22938 0.0212636 0.0212636 0.0168027 0.0168027 0.162735 0.162735 0.1723 0.1723 0.0172137 0.0172137 0.109353 0.109353 0.0206302 0.0206302 0.01308 0.01308 0.000343216 0.000343216 0.00108351 0.00108351 0.0533114 0.0533114 0.0929275 0.0929275 0.0344759 0.0344759 0.16705 0.16705 0.0666277 0.0666277 0.0895584 0.0895584 0.0301622 0.0301622 0.0571225 0.0571225 0.0131164 0.0131164 0.049964 0.049964 0.0198269 0.0198269 0.124458 0.124458 0.0812403 0.0812403 0.053284 0.053284 0.0169123 0.0169123 0.00681796 0.00681796 0.0607197 0.0607197 0.00135374 0.00135374 0.0468092 0.0468092 0.0515534 0.0515534 0.0258863 0.0258863 0.000300163 0.000300163 0.0161645 0.0161645 0.0010991 0.0010991 0.0206421 0.0206421 0.0423394 0.0423394 0.0512562 0.0512562 0.107484 0.107484 0.0229177 0.0229177 0.121926 0.121926 0.0136256 0.0136256 0.00594375 0.00594375 0.00226471 0.00226471 0.0638593 0.0638593 0.0543396 0.0543396 0.00244675 0.00244675 0.0566167 0.0566167 0.00489151 0.00489151 0.0184305 0.0184305 0.00504472 0.00504472 0.138359 0.138359 0.0514902 0.0514902 0.0640891 0.0640891 0.0129515 0.0129515 0.000621632 0.000621632 0.0462885 0.0462885 0.00676465 0.00676465 0.0140616 0.0140616 0.0349009 0.0349009 0.0640163 0.0640163 0.00012554 0.00012554 0.000162895 0.000162895 0.00180238 0.00180238 0.00858821 0.00858821 0.0555899 0.0555899 0.0902978 0.0902978 0.0303331 0.0303331 0.00746419 0.00746419 0.0675888 0.0675888 0.26153 0.26153 0.000822192 0.000822192 0.0318511 0.0318511 0.00430533 0.00430533 0.0309877 0.0309877 0.0364502 0.0364502 0.164771 0.164771 0.0441708 0.0441708 0.247739 0.247739 0.131356 0.131356 0.0112035 0.0112035 0.0072317 0.0072317 0.0415896 0.0415896 0.00777664 0.00777664 0.0126558 0.0126558 0.00312282 0.00312282 0.0122376 0.0122376 0.208592 0.208592 0.184462 0.184462 0.0348982 0.0348982 0.0348982 0.0348982 0.100529 0.100529 0.0478152 0.0478152 0.0511447 0.0511447 0.0401533 0.0401533 0.0531569 0.0531569 0.247854 0.247854 0.00338987 0.00338987 0.110427 0.110427 0.12058 0.12058 0.0158565 0.0158565 0.0118977 0.0118977 0.000996778 0.000996778 0.0530848 0.0530848 0.00285377 0.00285377 0.0755908 0.0755908 0.0735561 0.0735561 0.00208461 0.00208461 0.0325496 0.0325496 0.0121161 0.0121161 0.0822039 0.0822039 0.041993 0.041993 0.0541785 0.0541785 0.0651173 0.0651173 5.47571e-05 5.47571e-05 0.0405803 0.0405803 0.893272 0.893272 0.00349538 0.00349538 0.00283981 0.00283981 3.92779e-05 3.92779e-05 0.00601665 0.00601665 0.0249905 0.0249905 0 0 0.34324 0.34324 0.352021 0.352021 0.0726879 0.0726879 0.0995572 0.0995572 0.0973279 0.0973279 0.116574 0.116574 0.00793894 0.00793894 0.264369 0.264369 0.260827 0.260827 0.13367 0.13367 0.15291 0.15291 0.00168299 0.00168299 0.0196858 0.0196858 0.0132728 0.0132728 0.074761 0.074761 0.0489992 0.0489992 0.000868636 0.000868636 0.10835 0.10835 0.109627 0.109627 0.318927 0.318927 0.323152 0.323152 0.0272941 0.0272941 0.00706322 0.00706322 0.0944832 0.0944832 0.080838 0.080838 0 0 0.2025 0.2025 0.20169 0.20169 0.00260142 0.00260142 0.0343209 0.0343209 0.0145892 0.0145892 0.00758625 0.00758625 0.0154919 0.0154919 0.011145 0.011145 0.0278304 0.0278304 0.00983171 0.00983171 0.547839 0.547839 0.0276278 0.0276278 0.155174 0.155174 0 0 0.00590517 0.00590517 0.000173377 0.000173377 0.0135103 0.0135103 0.0633762 0.0633762 0.0297064 0.0297064 0.0836995 0.0836995 0.0567809 0.0567809 0.00419315 0.00419315 0.133953 0.133953 0.0136113 0.0136113 0.0174332 0.0174332 0.0147205 0.0147205 0.0060871 0.0060871 0.000199852 0.000199852 0.303966 0.303966 0.00288218 0.00288218 0.365721 0.365721 0.31766 0.31766 0 0 0.0968553 0.0968553 0.0253064 0.0253064 0.00699823 0.00699823 0.0448449 0.0448449 0.0412001 0.0412001 0.0203319 0.0203319 0.12976 0.12976 0.007062 0.007062 0.0127036 0.0127036 0.0029337 0.0029337 0.00239207 0.00239207 0.0163904 0.0163904 0.00442139 0.00442139 0.0360451 0.0360451 0.00439758 0.00439758 0.024014 0.024014 0.0670794 0.0670794 0.0420141 0.0420141 0.0167299 0.0167299 0.107898 0.107898 0.143643 0.143643 0.0642995 0.0642995 0.0245095 0.0245095 0.303567 0.303567 0.0070624 0.0070624 0.00445637 0.00445637 0.0962019 0.0962019 0.00751401 0.00751401 0.000784896 0.000784896 0.12308 0.12308 0.0254792 0.0254792 0.0344669 0.0344669 0.034896 0.034896 0.00263963 0.00263963 0.09887 0.09887 0.0504594 0.0504594 0.135657 0.135657 0.0246275 0.0246275 0.0024342 0.0024342 0.0222654 0.0222654 0.0252153 0.0252153 0.0600959 0.0600959 0.0830228 0.0830228 0.0183906 0.0183906 0.442544 0.442544 0 0 0.0307524 0.0307524 0.015768 0.015768 0.0194103 0.0194103 0.0103995 0.0103995 0.00522841 0.00522841 0.625631 0.625631 0.235728 0.235728 0.0934422 0.0934422 0.0500375 0.0500375 0.00144785 0.00144785 0.0028384 0.0028384 0.00391073 0.00391073 0 0 0.0477448 0.0477448 0.0031849 0.0031849 0.0582574 0.0582574 0.0290754 0.0290754 0.00104704 0.00104704 0.183237 0.183237 0.0130512 0.0130512 0.0495167 0.0495167 0.00079158 0.00079158 0 0 0.239326 0.239326 0.248439 0.248439 0.269163 0.269163 0.0142179 0.0142179 0.00660824 0.00660824 0.107957 0.107957 0.216778 0.216778 0.00720077 0.00720077 0.00407067 0.00407067 0.00120316 0.00120316 0.00123437 0.00123437 0.0569987 0.0569987 0.0703386 0.0703386 0.186973 0.186973 0.744305 0.744305 0.00799153 0.00799153 0.0745284 0.0745284 0.0803975 0.0803975 0.00328424 0.00328424 0.144543 0.144543 0.102392 0.102392 0.176023 0.176023 0.0341708 0.0341708 0.0435943 0.0435943 0.00133529 0.00133529 0.0239788 0.0239788 0.00248653 0.00248653 0.031046 0.031046 0.00531882 0.00531882 0.15697 0.15697 0.0378572 0.0378572 0.0113625 0.0113625 0.0128254 0.0128254 0.122144 0.122144 0.152668 0.152668 0.0103609 0.0103609 0.0378999 0.0378999 0.0405642 0.0405642 0.143275 0.143275 0.0751947 0.0751947 0.0568798 0.0568798 0.027509 0.027509 0.0275105 0.0275105 0.162976 0.162976 0.0310957 0.0310957 0.00829786 0.00829786 0.0151706 0.0151706 0.00416998 0.00416998 0.170279 0.170279 0.0135001 0.0135001 0.0569607 0.0569607 0.433896 0.433896 0.0161381 0.0161381 0.147309 0.147309 0.0529828 0.0529828 0.0113289 0.0113289 0.349512 0.349512 0.245323 0.245323 0.041882 0.041882 0.0179444 0.0179444 0.00401431 0.00401431 0.0318464 0.0318464 0.00347808 0.00347808 0.0116995 0.0116995 0.17769 0.17769 0.00890018 0.00890018 0.0187451 0.0187451 0.305861 0.305861 0.169446 0.169446 0.0151556 0.0151556 0.0343101 0.0343101 0.40153 0.40153 0.226283 0.226283 0.440473 0.440473 0.0246441 0.0246441 0.00234824 0.00234824 0.0973975 0.0973975 0.189363 0.189363 0.0333896 0.0333896 0.145885 0.145885 0.0338592 0.0338592 0.392751 0.392751 0.191765 0.191765 0.00581952 0.00581952 0.0697378 0.0697378 0.178669 0.178669 0.00369065 0.00369065 0.362949 0.362949 0.346013 0.346013 0.019228 0.019228 0.0784884 0.0784884 0.0115002 0.0115002 0.0697697 0.0697697 0.0274462 0.0274462 0.0274462 0.0274462 0.0485043 0.0485043 0.0481449 0.0481449 0.00786672 0.00786672 0.237994 0.237994 0.00392516 0.00392516 0.0179068 0.0179068 0.0432454 0.0432454 0.0845183 0.0845183 0.0026077 0.0026077 0.181709 0.181709 0.0427148 0.0427148 0.0351955 0.0351955 0.021822 0.021822 0.0224472 0.0224472 0.279745 0.279745 0.378039 0.378039 0.0789999 0.0789999 0.0834093 0.0834093 0.0779146 0.0779146 0.00492463 0.00492463 0.0422235 0.0422235 0.0966785 0.0966785 0.0727954 0.0727954 0.0779912 0.0779912 0.0559196 0.0559196 0.33506 0.33506 0.0214774 0.0214774 0.0806315 0.0806315 0.00786258 0.00786258 0.149914 0.149914 0.119279 0.119279 0.0108818 0.0108818 0.0756406 0.0756406 0.00087384 0.00087384 0.0879809 0.0879809 0.0293632 0.0293632 0.0148976 0.0148976 0.0132327 0.0132327 0.0143273 0.0143273 0.239393 0.239393 0.0459201 0.0459201 0.00854008 0.00854008 0.082937 0.082937 0.108764 0.108764 0.0748795 0.0748795 0.149912 0.149912 0.112112 0.112112 0.0461847 0.0461847 0.47019 0.47019 0.0436321 0.0436321 0.000190962 0.000190962 0.00504156 0.00504156 0.273626 0.273626 0.410916 0.410916 0.0403374 0.0403374 0.00168704 0.00168704 0.0582977 0.0582977 3.47868e-05 3.47868e-05 0.0122455 0.0122455 0.101698 0.101698 0.00135466 0.00135466 0.299951 0.299951 0.238752 0.238752 0.0630999 0.0630999 0.0764373 0.0764373 0 0 0 0 0.00706971 0.00706971 0.306058 0.306058 0.282165 0.282165 0.0308486 0.0308486 0.00221953 0.00221953 0.0585256 0.0585256 0.0230397 0.0230397 0.136666 0.136666 0.038765 0.038765 0.0123907 0.0123907 0.031169 0.031169 0.0709586 0.0709586 0.00644628 0.00644628 0.0266667 0.0266667 0.0740703 0.0740703 0.23314 0.23314 0.0203598 0.0203598 0.033937 0.033937 0.0331673 0.0331673 0.279455 0.279455 0 0 0.048038 0.048038 0.0839704 0.0839704 0.0468849 0.0468849 0.0011229 0.0011229 0.00204743 0.00204743 0 0 0 0 0.0190084 0.0190084 0.0208735 0.0208735 0.100803 0.100803 0.038797 0.038797 0.10305 0.10305 0.0872402 0.0872402 0.123507 0.123507 0.123507 0.123507 0.0107305 0.0107305 0.00205491 0.00205491 0.175919 0.175919 0.646891 0.646891 0.156807 0.156807 0.0051635 0.0051635 0.187145 0.187145 0.0154704 0.0154704 0.000355553 0.000355553 0.0293435 0.0293435 0.00250549 0.00250549 0.0277677 0.0277677 0.0253744 0.0253744 0.000752302 0.000752302 0.0137291 0.0137291 0.115697 0.115697 0.014815 0.014815 0.00184414 0.00184414 0.842086 0.842086 0.03194 0.03194 0.757214 0.757214 0.213796 0.213796 0.0142682 0.0142682 0.130092 0.130092 0.0366291 0.0366291 0.0153863 0.0153863 0.0568965 0.0568965 0.00110519 0.00110519 0.0702829 0.0702829 0.0393203 0.0393203 0.00808614 0.00808614 0.0144225 0.0144225 0.00955248 0.00955248 0.00260818 0.00260818 0.00938111 0.00938111 0.0927209 0.0927209 0.0896497 0.0896497 0.0096989 0.0096989 0.0638073 0.0638073 0.0619575 0.0619575 0.0362467 0.0362467 0.193809 0.193809 0.347364 0.347364 0.230006 0.230006 0.0281633 0.0281633 0.0919374 0.0919374 0.0216571 0.0216571 0.0180247 0.0180247 0.0237052 0.0237052 0.102428 0.102428 0.0104347 0.0104347 0.0186519 0.0186519 0.01741 0.01741 0.00828395 0.00828395 0.0362328 0.0362328 0.0171044 0.0171044 0.0958888 0.0958888 0.0603446 0.0603446 0.0745279 0.0745279 0.14135 0.14135 0.0575823 0.0575823 0.00580819 0.00580819 0.00440021 0.00440021 0.00401621 0.00401621 0.0201557 0.0201557 0.00239409 0.00239409 0.00725526 0.00725526 0.073316 0.073316 0.19822 0.19822 0.380895 0.380895 0.00846451 0.00846451 0.0108931 0.0108931 0.0240364 0.0240364 0.0361512 0.0361512 0.106837 0.106837 0.105575 0.105575 0.0017799 0.0017799 0.0311108 0.0311108 0.102928 0.102928 0.0621001 0.0621001 0.334564 0.334564 0.0340969 0.0340969 0.0497697 0.0497697 0.0534199 0.0534199 0.0947695 0.0947695 0.0288023 0.0288023 0.408826 0.408826 0.0728712 0.0728712 0 0 0.029527 0.029527 0.0455367 0.0455367 0.0272534 0.0272534 0.164692 0.164692 0.0808485 0.0808485 0.188434 0.188434 7.62216e-05 7.62216e-05 0.0220623 0.0220623 0.000113232 0.000113232 0.0182197 0.0182197 0.0666306 0.0666306 0.102392 0.102392 0.175433 0.175433 0.0242352 0.0242352 0.000491041 0.000491041 0.27031 0.27031 0.0324448 0.0324448 0.206694 0.206694 0.0984382 0.0984382 0.0311143 0.0311143 0.288502 0.288502 0.0100986 0.0100986 0.0451007 0.0451007 0.00472083 0.00472083 0.0213826 0.0213826 0.0277863 0.0277863 0.0823332 0.0823332 0.0169053 0.0169053 0.032464 0.032464 0.0194674 0.0194674 0.0481405 0.0481405 0.0644281 0.0644281 0.00500507 0.00500507 0.0114049 0.0114049 0.138886 0.138886 0.166437 0.166437 0.0377692 0.0377692 0.0110332 0.0110332 0.344073 0.344073 0.0274142 0.0274142 0.00968194 0.00968194 0.041131 0.041131 0.118511 0.118511 0.0761719 0.0761719 0.0065614 0.0065614 0.0201128 0.0201128 0.0134023 0.0134023 0.330892 0.330892 0.347303 0.347303 0.0674118 0.0674118 0.201902 0.201902 0.00141684 0.00141684 0.0327912 0.0327912 0.0166287 0.0166287 0.0548911 0.0548911 0.144307 0.144307 0.0150767 0.0150767 0.0247978 0.0247978 0.00360854 0.00360854 0.00776976 0.00776976 0.00938419 0.00938419 0.0430392 0.0430392 0.00523233 0.00523233 0.0564642 0.0564642 0.00302155 0.00302155 0.0138448 0.0138448 0.0877767 0.0877767 0.0429113 0.0429113 0.00155836 0.00155836 0.103991 0.103991 0.0121561 0.0121561 0.0086722 0.0086722 0.00216724 0.00216724 0.000132574 0.000132574 0.0288744 0.0288744 0.130936 0.130936 0.111098 0.111098 0.0169413 0.0169413 0.000734026 0.000734026 0.00479314 0.00479314 0.0296707 0.0296707 0.0172573 0.0172573 0.0442219 0.0442219 0.00810524 0.00810524 0.0128859 0.0128859 0.000187601 0.000187601 0.0352477 0.0352477 0.000396424 0.000396424 0.0286498 0.0286498 0.102816 0.102816 0.112901 0.112901 0.412013 0.412013 0.109445 0.109445 0.0240312 0.0240312 0.0838322 0.0838322 0.0814986 0.0814986 0.0120386 0.0120386 0.00588466 0.00588466 0.0004343 0.0004343 0.0117216 0.0117216 0.0500214 0.0500214 0.0451617 0.0451617 0.0323979 0.0323979 0.0557107 0.0557107 0.00638599 0.00638599 0.02929 0.02929 0.0343823 0.0343823 0.0207013 0.0207013 0.0867356 0.0867356 0.00173689 0.00173689 0.0644587 0.0644587 0.077357 0.077357 0.0273158 0.0273158 0 0 0.170266 0.170266 0.00730341 0.00730341 0.0507731 0.0507731 0.0980707 0.0980707 0.026358 0.026358 0.010976 0.010976 0.0799259 0.0799259 0.0100879 0.0100879 0.198263 0.198263 0.167678 0.167678 0.467462 0.467462 0.00253965 0.00253965 0.00364187 0.00364187 0.00590438 0.00590438 0.140536 0.140536 0.0203281 0.0203281 0.0461019 0.0461019 0.00937 0.00937 0.0432961 0.0432961 0.0183377 0.0183377 0.242499 0.242499 0.232673 0.232673 0.0378099 0.0378099 0.0167487 0.0167487 0.194164 0.194164 0.00966652 0.00966652 0.00875726 0.00875726 0.304446 0.304446 0.431755 0.431755 0.0328301 0.0328301 0.0990562 0.0990562 0.0162961 0.0162961 0.0842073 0.0842073 0.152629 0.152629 0.00982747 0.00982747 0.108163 0.108163 0.00656067 0.00656067 0.0102885 0.0102885 0.0549109 0.0549109 0.084527 0.084527 0.0540487 0.0540487 0.0375677 0.0375677 0.19315 0.19315 0.11614 0.11614 0.0530477 0.0530477 0.0334012 0.0334012 0.00941031 0.00941031 3.061e-05 3.061e-05 0.0314487 0.0314487 0.00915213 0.00915213 0.00779406 0.00779406 0.0210856 0.0210856 0.106715 0.106715 0.00114303 0.00114303 0.517604 0.517604 0.00971791 0.00971791 0.000766269 0.000766269 0.00765823 0.00765823 0.00723572 0.00723572 0.0329642 0.0329642 0.119686 0.119686 0.000166858 0.000166858 0.0135014 0.0135014 0.0636114 0.0636114 0.0108143 0.0108143 0.0178015 0.0178015 0.00630315 0.00630315 0.0289572 0.0289572 0.0151688 0.0151688 0.00183524 0.00183524 0.0686746 0.0686746 0.128146 0.128146 0.123593 0.123593 0.0752554 0.0752554 0.0156965 0.0156965 0.0442212 0.0442212 0.0205477 0.0205477 0.153546 0.153546 0.093171 0.093171 0.00958202 0.00958202 0.0796071 0.0796071 0.0792913 0.0792913 0.495397 0.495397 0.000120434 0.000120434 0.276353 0.276353 0.190289 0.190289 0.0805193 0.0805193 0.0323712 0.0323712 0.0317478 0.0317478 0.0320903 0.0320903 0.100592 0.100592 0.197116 0.197116 0.802821 0.802821 0.138379 0.138379 0.11909 0.11909 0.030931 0.030931 0.0338843 0.0338843 0.00169159 0.00169159 0.107374 0.107374 0.0128689 0.0128689 0.0480528 0.0480528 0.0278887 0.0278887 0.00970294 0.00970294 0.0881328 0.0881328 0.0361784 0.0361784 0.143091 0.143091 0.24261 0.24261 0.000901663 0.000901663 0.0404238 0.0404238 0.0598896 0.0598896 0.00622369 0.00622369 0.322475 0.322475 0.239663 0.239663 0.098645 0.098645 0.208211 0.208211 0.10462 0.10462 0.0295292 0.0295292 0.529459 0.529459 0.0365173 0.0365173 0.404788 0.404788 0.000298302 0.000298302 0.143964 0.143964 0.0228458 0.0228458 0.031994 0.031994 0.000498603 0.000498603 0.0201582 0.0201582 0.00745828 0.00745828 0.0414448 0.0414448 0.00707789 0.00707789 0.144748 0.144748 0.131947 0.131947 0.0119294 0.0119294 0.0620436 0.0620436 0.0811523 0.0811523 0.080312 0.080312 0.015648 0.015648 0.00548375 0.00548375 0.0255189 0.0255189 0.0727325 0.0727325 0.212755 0.212755 0.176536 0.176536 0.338997 0.338997 0.330516 0.330516 0.0359839 0.0359839 0.36819 0.36819 0.557774 0.557774 0.694039 0.694039 0.0134902 0.0134902 0.0516269 0.0516269 0.164623 0.164623 0.0412526 0.0412526 0.0258628 0.0258628 0.00151087 0.00151087 0.000523071 0.000523071 0.000207933 0.000207933 0.00258501 0.00258501 9.88074e-05 9.88074e-05 3.93822e-05 3.93822e-05 0.0359153 0.0359153 3.44566e-05 3.44566e-05 0.0399045 0.0399045 0.0708661 0.0708661 0.0847015 0.0847015 0.0758638 0.0758638 0.122328 0.122328 0.0409587 0.0409587 0.0822238 0.0822238 0.0472639 0.0472639 0.000315458 0.000315458 0.0897146 0.0897146 0.0263493 0.0263493 0.00310139 0.00310139 0.00207317 0.00207317 0.0158417 0.0158417 0.00171446 0.00171446 0.0285264 0.0285264 0.0248332 0.0248332 0.057964 0.057964 0.208961 0.208961 0.187696 0.187696 0.00119777 0.00119777 0.00481442 0.00481442 0.00140026 0.00140026 0.0134364 0.0134364 0.503918 0.503918 0.000419082 0.000419082 0.0469344 0.0469344 0.000394314 0.000394314 0.0679382 0.0679382 0.198209 0.198209 0.0248847 0.0248847 0.121962 0.121962 0.0742286 0.0742286 0.00801134 0.00801134 0.0954638 0.0954638 0.0115525 0.0115525 0.326809 0.326809 0.0102228 0.0102228 0.0920635 0.0920635 0.0526672 0.0526672 0.000609696 0.000609696 0.0225402 0.0225402 0.303819 0.303819 0.259953 0.259953 0.0170951 0.0170951 0.0464685 0.0464685 0.0799606 0.0799606 0.109319 0.109319 0.00694521 0.00694521 0.0882397 0.0882397 0.0541189 0.0541189 0.0261321 0.0261321 0.052454 0.052454 0.0556305 0.0556305 0.0390057 0.0390057 0.0061642 0.0061642 0.0592641 0.0592641 0.00198684 0.00198684 0.0452396 0.0452396 0.0506938 0.0506938 0.0289255 0.0289255 0.0156405 0.0156405 0.0646852 0.0646852 0.211056 0.211056 0.211309 0.211309 0.0201377 0.0201377 0.127397 0.127397 0.0105556 0.0105556 0.000972934 0.000972934 0.0103802 0.0103802 0.000173432 0.000173432 0.00833121 0.00833121 0.00305615 0.00305615 0.0508131 0.0508131 0.0551944 0.0551944 0.0104984 0.0104984 0.0817138 0.0817138 0.0715379 0.0715379 0.00319642 0.00319642 0.0561034 0.0561034 0.0222827 0.0222827 0.0419307 0.0419307 0.00546637 0.00546637 0.0448393 0.0448393 0.00575743 0.00575743 0.0535816 0.0535816 0.000600944 0.0