<?xml version="1.0"?>
<VTKFile type="PolyData" version="0.1" byte_order="LittleEndian" >
<PolyData>
<Piece NumberOfPoints="22742" NumberOfVerts="0" NumberOfLines="11371" NumberOfStrips="0" NumberOfPolys="0">
<Points>
<DataArray type="Float32" NumberOfComponents="3" format="ascii">
0.156841 0.102507 0.334102 0.1602 0.0921121 0.326045 0.156841 0.102507 0.334102 0.1602 0.109522 0.322977 0.0126481 0.148098 0.330985 0.00733872 0.159609 0.337109 0.0126481 0.148098 0.330985 0.0224989 0.151613 0.344028 0.0126481 0.148098 0.330985 -0.000200012 0.147641 0.326018 0.0665651 0.138511 0.330219 0.0712861 0.155862 0.331466 0.134803 0.112534 0.331238 0.1183 0.123689 0.33463 0.134803 0.112534 0.331238 0.125985 0.130882 0.340964 0.134803 0.112534 0.331238 0.139952 0.0973637 0.332851 0.134803 0.112534 0.331238 0.145155 0.113113 0.332527 0.0740252 0.130957 0.333054 0.0665651 0.138511 0.330219 0.103511 0.172062 0.348106 0.111642 0.171888 0.350642 0.103511 0.172062 0.348106 0.122175 0.171761 0.347208 0.103511 0.172062 0.348106 0.114485 0.158052 0.345979 0.146887 0.142601 0.343529 0.144627 0.161332 0.348022 0.145155 0.113113 0.332527 0.14398 0.122862 0.339267 0.0125282 0.134877 0.33217 0.0126481 0.148098 0.330985 0.0125282 0.134877 0.33217 -0.000200012 0.131675 0.327973 0.00150195 0.123459 0.330789 -0.000200014 0.123158 0.317362 0.0538019 0.117709 0.332227 0.0521707 0.127722 0.334074 0.0538019 0.117709 0.332227 0.069936 0.111747 0.336113 0.0538019 0.117709 0.332227 0.0601683 0.10159 0.336702 0.0476236 0.132942 0.331167 0.0559181 0.129849 0.345397 0.01072 0.105837 0.330725 0.019159 0.111175 0.331043 0.01072 0.105837 0.330725 0.019159 0.111175 0.331043 0.01072 0.105837 0.330725 -0.000200044 0.112901 0.326295 0.141438 0.0606671 0.332616 0.136252 0.0498 0.326 0.078318 0.126857 0.339614 0.0880569 0.12256 0.346108 0.078318 0.126857 0.339614 0.0858121 0.128188 0.358745 0.078318 0.126857 0.339614 0.0891119 0.137012 0.334447 0.078318 0.126857 0.339614 0.0896849 0.1262 0.343008 0.078318 0.126857 0.339614 0.0896849 0.1262 0.343008 0.0349323 0.129208 0.331689 0.0476236 0.132942 0.331167 0.0349323 0.129208 0.331689 0.0476236 0.132942 0.331167 0.0674309 0.147152 0.334345 0.0785769 0.15333 0.346687 0.0674309 0.147152 0.334345 0.0712861 0.155862 0.331466 0.0674309 0.147152 0.334345 0.0732895 0.151641 0.342332 0.108134 0.145994 0.333572 0.116598 0.161353 0.334514 0.108134 0.145994 0.333572 0.104122 0.154013 0.336506 0.108134 0.145994 0.333572 0.113732 0.139579 0.331431 0.108134 0.145994 0.333572 0.113732 0.139579 0.331431 0.108134 0.145994 0.333572 0.12322 0.145478 0.338043 0.108134 0.145994 0.333572 0.114778 0.130239 0.345649 0.094078 0.0994056 0.339892 0.115185 0.0933958 0.335979 0.094078 0.0994056 0.339892 0.115307 0.0930819 0.332818 0.111191 0.157115 0.342691 0.114485 0.158052 0.345979 0.0294419 0.171665 0.334533 0.0358764 0.175689 0.332035 0.0294419 0.171665 0.334533 0.0358764 0.175689 0.332035 0.025455 0.112644 0.334284 0.0354484 0.120227 0.336435 0.025455 0.112644 0.334284 0.0349323 0.129208 0.331689 0.0812326 0.124821 0.332002 0.0740252 0.130957 0.333054 0.0812326 0.124821 0.332002 0.0891119 0.137012 0.334447 0.0812326 0.124821 0.332002 0.0903036 0.129545 0.339839 0.0110608 0.103184 0.334794 0.01072 0.105837 0.330725 0.0110608 0.103184 0.334794 0.00150195 0.123459 0.330789 0.107836 0.169529 0.344157 0.103511 0.172062 0.348106 0.107836 0.169529 0.344157 0.125011 0.176794 0.339959 0.107836 0.169529 0.344157 0.129369 0.159226 0.339349 0.107836 0.169529 0.344157 0.114485 0.158052 0.345979 0.037205 0.143337 0.330208 0.0287785 0.150115 0.334296 0.037205 0.143337 0.330208 0.0287785 0.150115 0.334296 0.0786747 0.0819626 0.346199 0.071972 0.0958889 0.346275 0.0786747 0.0819626 0.346199 0.0748106 0.0985642 0.347572 0.0786747 0.0819626 0.346199 0.0901111 0.0671801 0.339479 0.0786747 0.0819626 0.346199 0.0951724 0.0638759 0.345184 0.0864894 0.144352 0.34085 0.0870921 0.159116 0.333127 0.0864894 0.144352 0.34085 0.0785769 0.15333 0.346687 0.0864894 0.144352 0.34085 0.0732895 0.151641 0.342332 0.0864894 0.144352 0.34085 0.0732895 0.151641 0.342332 0.0613441 0.0944735 0.330842 0.0601683 0.10159 0.336702 0.0613441 0.0944735 0.330842 0.0601683 0.10159 0.336702 0.0103571 0.0781251 0.330538 -0.000200016 0.0866287 0.328345 0.0831179 0.0995178 0.332301 0.0876066 0.108433 0.335181 0.0137497 0.133851 0.336894 0.0125282 0.134877 0.33217 0.0137497 0.133851 0.336894 0.0125282 0.134877 0.33217 0.0137497 0.133851 0.336894 0.0235601 0.154094 0.340726 0.0712861 0.155862 0.331466 0.0870921 0.159116 0.333127 0.031532 0.080903 0.333582 0.0278202 0.062411 0.33382 0.031532 0.080903 0.333582 0.0330275 0.094492 0.336746 0.0921542 0.16618 0.343924 0.107836 0.169529 0.344157 0.140714 0.0777014 0.332877 0.139952 0.0973637 0.332851 0.0164456 0.136844 0.340441 0.0137497 0.133851 0.336894 0.0164456 0.136844 0.340441 0.0137497 0.133851 0.336894 0.0164456 0.136844 0.340441 0.0126481 0.148098 0.330985 0.0164456 0.136844 0.340441 0.0399235 0.142294 0.341521 0.144451 0.0897516 0.339762 0.148014 0.0957153 0.34201 0.144451 0.0897516 0.339762 0.14851 0.106245 0.342631 0.144451 0.0897516 0.339762 0.139952 0.0973637 0.332851 0.0392449 0.139073 0.337787 0.0476236 0.132942 0.331167 0.0392449 0.139073 0.337787 0.0476236 0.132942 0.331167 0.0392449 0.139073 0.337787 0.0476236 0.132942 0.331167 0.069936 0.111747 0.336113 0.0601683 0.10159 0.336702 0.069936 0.111747 0.336113 0.0601683 0.10159 0.336702 0.069936 0.111747 0.336113 0.0812326 0.124821 0.332002 0.069936 0.111747 0.336113 0.0518481 0.127871 0.337721 0.0288311 0.0600256 0.337666 0.0278202 0.062411 0.33382 0.110479 0.138303 0.339781 0.108134 0.145994 0.333572 0.110479 0.138303 0.339781 0.0959856 0.151949 0.342935 0.110479 0.138303 0.339781 0.122851 0.120897 0.339352 0.110479 0.138303 0.339781 0.114778 0.130239 0.345649 0.110479 0.138303 0.339781 0.114778 0.130239 0.345649 0.137113 0.17364 0.343812 0.144627 0.161332 0.348022 0.137113 0.17364 0.343812 0.138395 0.174475 0.360173 0.01239 0.0568049 0.336224 0.0145358 0.0662687 0.339755 0.01239 0.0568049 0.336224 0.0126491 0.0646199 0.333693 0.01239 0.0568049 0.336224 0.0126491 0.0646199 0.333693 0.01239 0.0568049 0.336224 0.0231233 0.0498 0.340932 0.0903036 0.129545 0.339839 0.0896849 0.1262 0.343008 0.0903036 0.129545 0.339839 0.0896849 0.1262 0.343008 0.0903036 0.129545 0.339839 0.0959856 0.151949 0.342935 0.00705408 0.138414 0.338454 0.0164456 0.136844 0.340441 0.00705408 0.138414 0.338454 0.0137497 0.133851 0.336894 0.00705408 0.138414 0.338454 -0.000200021 0.127581 0.334378 0.00705408 0.138414 0.338454 -0.000200015 0.144235 0.32845 0.0778792 0.164787 0.343228 0.0732895 0.151641 0.342332 0.0778792 0.164787 0.343228 0.0732895 0.151641 0.342332 0.0778792 0.164787 0.343228 0.0968508 0.173714 0.352671 0.0778792 0.164787 0.343228 0.0881148 0.163735 0.339778 0.0778792 0.164787 0.343228 0.0921542 0.16618 0.343924 0.152507 0.115924 0.331728 0.14398 0.122862 0.339267 0.152507 0.115924 0.331728 0.149122 0.123937 0.332351 0.152507 0.115924 0.331728 0.1602 0.122832 0.322787 0.11285 0.0548377 0.336569 0.110635 0.0627611 0.334663 0.11285 0.0548377 0.336569 0.106763 0.0602787 0.34357 0.11285 0.0548377 0.336569 0.106763 0.0602787 0.34357 0.0220521 0.102308 0.336198 0.0110608 0.103184 0.334794 0.0220521 0.102308 0.336198 0.01072 0.105837 0.330725 0.0220521 0.102308 0.336198 0.0338091 0.115581 0.348234 0.0870339 0.111588 0.338731 0.10013 0.120631 0.346048 0.0870339 0.111588 0.338731 0.0975139 0.12105 0.332091 0.0870339 0.111588 0.338731 0.0996516 0.12178 0.336467 0.0923956 0.147366 0.341845 0.0864894 0.144352 0.34085 0.0923956 0.147366 0.341845 0.104122 0.154013 0.336506 0.0923956 0.147366 0.341845 0.104122 0.154013 0.336506 0.0923956 0.147366 0.341845 0.0881148 0.163735 0.339778 0.0923956 0.147366 0.341845 0.0959856 0.151949 0.342935 0.0923956 0.147366 0.341845 0.0959856 0.151949 0.342935 0.125985 0.130882 0.340964 0.129121 0.156246 0.34912 0.0512718 0.158159 0.339099 0.0430331 0.158438 0.331255 0.0512718 0.158159 0.339099 0.056898 0.152621 0.344961 0.0512718 0.158159 0.339099 0.056898 0.152621 0.344961 0.131488 0.070754 0.33496 0.129666 0.0959252 0.333253 0.131488 0.070754 0.33496 0.142374 0.079858 0.337559 0.131488 0.070754 0.33496 0.142374 0.079858 0.337559 0.131488 0.070754 0.33496 0.141438 0.0606671 0.332616 0.0354484 0.120227 0.336435 0.0392449 0.139073 0.337787 0.0354484 0.120227 0.336435 0.0349323 0.129208 0.331689 0.0791723 0.0852749 0.330394 0.0796398 0.0864096 0.338991 0.0791723 0.0852749 0.330394 0.0796398 0.0864096 0.338991 0.0791723 0.0852749 0.330394 0.075926 0.0985589 0.337942 0.106406 0.0718351 0.346576 0.102825 0.092097 0.34518 0.106406 0.0718351 0.346576 0.105965 0.0905594 0.341315 0.106406 0.0718351 0.346576 0.113475 0.0691143 0.354561 0.106406 0.0718351 0.346576 0.118232 0.0658173 0.356906 0.0647202 0.132716 0.341105 0.078318 0.126857 0.339614 0.0647202 0.132716 0.341105 0.0740252 0.130957 0.333054 0.0647202 0.132716 0.341105 0.0740252 0.130957 0.333054 0.0647202 0.132716 0.341105 0.0896849 0.1262 0.343008 0.141602 0.137153 0.336676 0.146887 0.142601 0.343529 0.141602 0.137153 0.336676 0.148804 0.150456 0.338208 0.141602 0.137153 0.336676 0.140257 0.151222 0.342863 0.141602 0.137153 0.336676 0.133642 0.156966 0.341159 0.142374 0.079858 0.337559 0.144451 0.0897516 0.339762 0.142374 0.079858 0.337559 0.144451 0.0897516 0.339762 0.142374 0.079858 0.337559 0.140714 0.0777014 0.332877 0.142374 0.079858 0.337559 0.140714 0.0777014 0.332877 0.142374 0.079858 0.337559 0.140714 0.0777014 0.332877 0.1183 0.123689 0.33463 0.125985 0.130882 0.340964 0.1183 0.123689 0.33463 0.125985 0.130882 0.340964 0.104498 0.0756071 0.333536 0.12094 0.0771031 0.346105 0.114778 0.130239 0.345649 0.1183 0.123689 0.33463 0.115185 0.0933958 0.335979 0.115307 0.0930819 0.332818 0.115185 0.0933958 0.335979 0.115307 0.0930819 0.332818 0.115185 0.0933958 0.335979 0.115307 0.0930819 0.332818 0.115185 0.0933958 0.335979 0.115307 0.0930819 0.332818 0.129666 0.0959252 0.333253 0.115307 0.0930819 0.332818 0.129666 0.0959252 0.3
[...]
<PointData Scalars="F_N">
<DataArray type="Float32" Name="F_N" format="ascii">
0 0 0 0 0.0148426 0.0148426 0.0114574 0.0114574 0.000599618 0.000599618 0.0155707 0.0155707 0.00319033 0.00319033 0.0150694 0.0150694 0.00984438 0.00984438 0.000971488 0.000971488 0.0203077 0.0203077 0.0158893 0.0158893 0.00107204 0.00107204 0.00100302 0.00100302 0.0179133 0.0179133 0.0121674 0.0121674 0.0217997 0.0217997 0.000127369 0.000127369 0.000159135 0.000159135 0.00910601 0.00910601 0.0020149 0.0020149 0.00176424 0.00176424 0.0249866 0.0249866 0.0365061 0.0365061 0.101681 0.101681 0.00328021 0.00328021 5.95013e-05 5.95013e-05 0.00592528 0.00592528 0.00689368 0.00689368 0.0364484 0.0364484 0.010275 0.010275 0.0263539 0.0263539 0.160133 0.160133 0.0533376 0.0533376 0.000105531 0.000105531 0.0394266 0.0394266 0.000954115 0.000954115 0.0131329 0.0131329 0.015721 0.015721 0.00968526 0.00968526 0.0132765 0.0132765 0.00871512 0.00871512 0.0222772 0.0222772 0.00257173 0.00257173 0.00760227 0.00760227 0.0272208 0.0272208 0.00615511 0.00615511 0.0392401 0.0392401 0.00144865 0.00144865 0.000622053 0.000622053 0.000443508 0.000443508 0.0207559 0.0207559 0.0378998 0.0378998 0.0444827 0.0444827 0.00556907 0.00556907 0.0139647 0.0139647 0.0146912 0.0146912 0.000960311 0.000960311 0.0534124 0.0534124 0.0105221 0.0105221 0.0145488 0.0145488 0.00118688 0.00118688 0.00115434 0.00115434 0.0106095 0.0106095 0.0111881 0.0111881 0.000809278 0.000809278 0.000150143 0.000150143 0.000131743 0.000131743 0.00765699 0.00765699 0.0484975 0.0484975 0.0260614 0.0260614 0.00380405 0.00380405 0.0114147 0.0114147 0.0247272 0.0247272 0.0263822 0.0263822 0.0128638 0.0128638 0.00286727 0.00286727 0.0630794 0.0630794 0.10306 0.10306 0.0141731 0.0141731 0.0212549 0.0212549 0.0319251 0.0319251 0.100895 0.100895 0.000934666 0.000934666 0.00733221 0.00733221 0.00540209 0.00540209 0.00290714 0.00290714 0.0113832 0.0113832 0.030312 0.030312 0.133089 0.133089 0.0206697 0.0206697 0.0456021 0.0456021 0.0063763 0.0063763 0.00187738 0.00187738 0.00885544 0.00885544 0.0781053 0.0781053 0.0143894 0.0143894 0.00782458 0.00782458 0.00135757 0.00135757 0.0498572 0.0498572 0.0371394 0.0371394 0.0014562 0.0014562 0.00600321 0.00600321 0.0347946 0.0347946 0.00747861 0.00747861 0.112494 0.112494 0.00685684 0.00685684 0.0296382 0.0296382 0.0566257 0.0566257 0.00129819 0.00129819 0.0175938 0.0175938 0.00805791 0.00805791 9.27454e-05 9.27454e-05 0.00068079 0.00068079 0.0178648 0.0178648 0.0260294 0.0260294 0.00493812 0.00493812 0.0342381 0.0342381 0.0254997 0.0254997 0.0177006 0.0177006 0.0190923 0.0190923 0 0 0.000959912 0.000959912 0.00272155 0.00272155 0.000443422 0.000443422 0.0439334 0.0439334 0.0178755 0.0178755 0.0246609 0.0246609 0.00730102 0.00730102 0.0653916 0.0653916 0.0525761 0.0525761 0.0940989 0.0940989 0.0137154 0.0137154 0.014791 0.014791 0.000913765 0.000913765 0.0280402 0.0280402 0.187321 0.187321 0.00819474 0.00819474 0.0559308 0.0559308 0.0969985 0.0969985 0.101039 0.101039 0.00203364 0.00203364 0.0974422 0.0974422 0.0483608 0.0483608 0.00289739 0.00289739 0.0124866 0.0124866 0.0657985 0.0657985 0.0250102 0.0250102 0.0107599 0.0107599 0.00133183 0.00133183 0.00734317 0.00734317 0.0012681 0.0012681 0.022836 0.022836 0.0163363 0.0163363 0.00437887 0.00437887 0.00965415 0.00965415 0.0253358 0.0253358 6.09556e-05 6.09556e-05 0.0114717 0.0114717 0.0257051 0.0257051 0.0145557 0.0145557 0.000388785 0.000388785 0.102144 0.102144 0.0257999 0.0257999 0.00867757 0.00867757 0.308075 0.308075 0.12194 0.12194 0.0540003 0.0540003 0.00943009 0.00943009 0.0189833 0.0189833 0.0037359 0.0037359 0.206553 0.206553 0.206151 0.206151 0.206527 0.206527 0.206461 0.206461 0.00756102 0.00756102 0.0881979 0.0881979 0.152709 0.152709 0.0198134 0.0198134 0.00447558 0.00447558 0.00464462 0.00464462 0.000920859 0.000920859 0.0151462 0.0151462 0.058148 0.058148 0.0046978 0.0046978 0.00112095 0.00112095 0.0327437 0.0327437 0.000347021 0.000347021 0.0064632 0.0064632 0.0383547 0.0383547 0.00060837 0.00060837 0.00822213 0.00822213 0.011465 0.011465 0.00403737 0.00403737 0.128406 0.128406 0.0170277 0.0170277 0.00957218 0.00957218 0.027576 0.027576 0.000298023 0.000298023 0.0107127 0.0107127 0.00389775 0.00389775 0.0245251 0.0245251 0.00113878 0.00113878 0.012027 0.012027 0.000281675 0.000281675 0.0259683 0.0259683 0.0156592 0.0156592 0.0278713 0.0278713 0.049531 0.049531 0.0117535 0.0117535 0.0190994 0.0190994 0.0213367 0.0213367 0.0175906 0.0175906 0.00144747 0.00144747 0.00294124 0.00294124 0.00205713 0.00205713 0.0173608 0.0173608 0.00523131 0.00523131 0.0760244 0.0760244 0.0305271 0.0305271 0.042886 0.042886 0.0152319 0.0152319 0.0285196 0.0285196 0.00311697 0.00311697 9.42033e-05 9.42033e-05 0.0612716 0.0612716 0.00629506 0.00629506 0.00910437 0.00910437 0.0205125 0.0205125 0 0 0.00754468 0.00754468 0.005952 0.005952 0.0233394 0.0233394 0.00622402 0.00622402 0.0102367 0.0102367 0.0405301 0.0405301 0.000247851 0.000247851 0.0129433 0.0129433 0.0137999 0.0137999 0.00612657 0.00612657 0.00148382 0.00148382 0.000174211 0.000174211 0.00129794 0.00129794 0.00955304 0.00955304 0.0183532 0.0183532 0.00136527 0.00136527 0.00103311 0.00103311 0.01451 0.01451 0.0256616 0.0256616 0.0271441 0.0271441 0.00287738 0.00287738 0.00524774 0.00524774 0.0595142 0.0595142 0.00278652 0.00278652 0 0 0.0543281 0.0543281 0.0521863 0.0521863 0.0244437 0.0244437 0.00972431 0.00972431 7.70761e-05 7.70761e-05 0.033391 0.033391 0.00791493 0.00791493 0.168205 0.168205 0.166439 0.166439 0.0282463 0.0282463 0.0392843 0.0392843 0.113733 0.113733 0.0259661 0.0259661 0.0630181 0.0630181 0.020001 0.020001 0.0256675 0.0256675 0.0160061 0.0160061 0.00015669 0.00015669 0.0029384 0.0029384 0.0348764 0.0348764 0.0202824 0.0202824 0.0185441 0.0185441 0.00577109 0.00577109 0.00505064 0.00505064 0.00500691 0.00500691 0.0826085 0.0826085 0.0550722 0.0550722 0.00287152 0.00287152 0.0175459 0.0175459 0.0218176 0.0218176 0.00228269 0.00228269 0.0256072 0.0256072 0.0528427 0.0528427 0.0413695 0.0413695 0.00540273 0.00540273 0.00368125 0.00368125 0.0596879 0.0596879 0.00823738 0.00823738 0.0375846 0.0375846 0.0359883 0.0359883 0.10776 0.10776 0.0137317 0.0137317 0.000236778 0.000236778 0.00245185 0.00245185 0.104798 0.104798 0 0 0.0769807 0.0769807 0.0250045 0.0250045 0.17258 0.17258 0.165658 0.165658 0.0120947 0.0120947 0.00551707 0.00551707 0.000842282 0.000842282 0.0164845 0.0164845 0.07834 0.07834 0.00847894 0.00847894 0.018423 0.018423 0.0158024 0.0158024 9.56312e-05 9.56312e-05 0.00725096 0.00725096 0.0873548 0.0873548 0.0155467 0.0155467 0.0260411 0.0260411 0.0369749 0.0369749 0.0819814 0.0819814 0.00027318 0.00027318 0.0118624 0.0118624 0.0133311 0.0133311 0.0177408 0.0177408 0.00766891 0.00766891 0.0100928 0.0100928 0.0308629 0.0308629 0.00592201 0.00592201 0.0025834 0.0025834 0.0158058 0.0158058 0.0193362 0.0193362 0.0112414 0.0112414 0.00315169 0.00315169 0.0376318 0.0376318 0.00882768 0.00882768 0.00322566 0.00322566 0.235026 0.235026 0.0803749 0.0803749 0.0186322 0.0186322 0.083618 0.083618 0.00807655 0.00807655 0.000945746 0.000945746 0.0201352 0.0201352 0.00014787 0.00014787 0.0333495 0.0333495 0.0229088 0.0229088 0.01892 0.01892 0.0231565 0.0231565 0.00295159 0.00295159 0.0410345 0.0410345 0.00284272 0.00284272 0.0157441 0.0157441 0.0160836 0.0160836 0.0654061 0.0654061 0.00473642 0.00473642 0.0123351 0.0123351 0.0169231 0.0169231 0 0 0.000181298 0.000181298 8.2574e-05 8.2574e-05 0.000219438 0.000219438 7.74346e-05 7.74346e-05 0.0119087 0.0119087 0.0165364 0.0165364 0.0654872 0.0654872 0.0142939 0.0142939 0.0109969 0.0109969 0.000125055 0.000125055 0.0055892 0.0055892 0.0114204 0.0114204 0.0631754 0.0631754 0.00647989 0.00647989 0.00230202 0.00230202 0.00798059 0.00798059 0.00145103 0.00145103 6.45963e-05 6.45963e-05 0.00732297 0.00732297 0.0108466 0.0108466 0.0213102 0.0213102 0.0183834 0.0183834 0.0427489 0.0427489 0.0493844 0.0493844 0.0846129 0.0846129 0.110982 0.110982 0.00530384 0.00530384 0.00111389 0.00111389 0.0948882 0.0948882 0.0152911 0.0152911 0.18656 0.18656 0.00563533 0.00563533 0.00876642 0.00876642 0.00148777 0.00148777 0.00319326 0.00319326 0.0219523 0.0219523 0.100452 0.100452 0.0285134 0.0285134 0.00449778 0.00449778 2.566e-05 2.566e-05 0.00148782 0.00148782 0.00448968 0.00448968 0.00479267 0.00479267 0.00392238 0.00392238 0.0397062 0.0397062 0.0655885 0.0655885 0.0106692 0.0106692 0.00212249 0.00212249 0.00267037 0.00267037 0.00488445 0.00488445 0.0700027 0.0700027 0.0276675 0.0276675 0.0126497 0.0126497 0.000761889 0.000761889 0.00877445 0.00877445 0.0310238 0.0310238 0.0398954 0.0398954 0.0141116 0.0141116 0.0236462 0.0236462 0.0123023 0.0123023 0.00434735 0.00434735 0.000517958 0.000517958 0.0255924 0.0255924 0.00607876 0.00607876 0.0189303 0.0189303 0.0745421 0.0745421 0.00890113 0.00890113 0.0406954 0.0406954 0.0237781 0.0237781 0.0105897 0.0105897 0.000827405 0.000827405 0.0220584 0.0220584 0.000623857 0.000623857 0.0173877 0.0173877 0.0402447 0.0402447 0.0381019 0.0381019 0.231358 0.231358 0.00157314 0.00157314 0.00663045 0.00663045 0.0230784 0.0230784 0.00101435 0.00101435 0.00598261 0.00598261 0.0254532 0.0254532 0.0103572 0.0103572 0.00736237 0.00736237 0.0755761 0.0755761 0.00799019 0.00799019 0.0130835 0.0130835 0.00783883 0.00783883 0.0261103 0.0261103 0.021209 0.021209 0.114778 0.114778 0.0381683 0.0381683 0.000237606 0.000237606 0.00638683 0.00638683 0.000391152 0.000391152 0.000110228 0.000110228 0.0255693 0.0255693 0.0380484 0.0380484 0.00407579 0.00407579 0.00179918 0.00179918 0.00915837 0.00915837 0.000370434 0.000370434 0.000978541 0.000978541 4.12642e-05 4.12642e-05 0.0631448 0.0631448 0.0256842 0.0256842 0.00606712 0.00606712 0.0513852 0.0513852 0.0209153 0.0209153 0.0151412 0.0151412 0.00945215 0.00945215 0.007667 0.007667 0.0142708 0.0142708 0.0062395 0.0062395 0.0154091 0.0154091 0.0014932 0.0014932 0.00237787 0.00237787 7.5231e-06 7.5231e-06 0.00696122 0.00696122 0.0451988 0.0451988 0.000554024 0.000554024 0.00929753 0.00929753 0.00667927 0.00667927 5.34635e-05 5.34635e-05 5.70555e-05 5.70555e-05 0.029793 0.029793 0.188998 0.188998 0.0319729 0.0319729 0.00769862 0.00769862 0.00507588 0.00507588 0.00502454 0.00502454 0.0215484 0.0215484 0.00646455 0.00646455 0.0295791 0.0295791 0.0328024 0.0328024 0.0257596 0.0257596 0.00158147 0.00158147 0.000529371 0.000529371 0.00174964 0.00174964 0.00541115 0.00541115 0.00323127 0.00323127 0.00998984 0.00998984 0.00240564 0.00240564 0.0167131 0.0167131 0.0124697 0.0124697 0.0401855 0.0401855 0.0122524 0.0122524 0.00451645 0.00451645 0.0356536 0.0356536 0.0367246 0.0367246 0.000927389 0.000927389 0.0534366 0.0534366 0.00493233 0.00493233 0.111585 0.111585 0.0259681 0.0259681 0.00486664 0.00486664 0.0402474 0.0402474 0.155579 0.155579 0.00118807 0.00118807 0.00463775 0.00463775 0.00212994 0.00212994 0.0293656 0.0293656 0.0299125 0.0299125 6.83161e-07 6.83161e-07 0.00543681 0.00543681 0.0358917 0.0358917 1.04304e-05 1.04304e-05 0.0089873 0.0089873 0.0133918 0.0133918 0.0140172 0.0140172 0.00357754 0.00357754 0.00504908 0.00504908 0.0308683 0.0308683 0.00792243 0.00792243 0.0188232 0.0188232 0.00186731 0.00186731 0.00324064 0.00324064 0.025115 0.025115 0.00773409 0.00773409 0.012679 0.012679 0.0130976 0.0130976 0.054823 0.054823 0.0182979 0.0182979 0.0216671 0.0216671 0.0312171 0.0312171 0.000813965 0.000813965 0.00613882 0.00613882 0.106205 0.106205 0.00245769 0.00245769 0.00490921 0.00490921 0.00864506 0.00864506 0.00164692 0.00164692 0.00367682 0.00367682 0.00352837 0.00352837 0.0178506 0.0178506 0.0315862 0.0315862 0 0 0 0 0.0215935 0.0215935 0.0051714 0.0051714 0.00462565 0.00462565 0.0082338 0.0082338 0.00282724 0.00282724 0.0537799 0.0537799 0.000312021 0.000312021 0 0 0.064265 0.064265 0.00270615 0.00270615 0.000145444 0.000145444 0.21244 0.21244 0.00738164 0.00738164 0.00738164 0.00738164 0.00217416 0.00217416 0.0128905 0.0128905 0.00362829 0.00362829 0.00202099 0.00202099 0.026994 0.026994 0.00386665 0.00386665 0.00494108 0.00494108 3.91329e-05 3.91329e-05 0.000105504 0.000105504 0.00609929 0.00609929 0.0855048 0.0855048 0.00194061 0.00194061 0.107608 0.107608 0.021075 0.021075 0.0505054 0.0505054 0.0284345 0.0284345 0.020074 0.020074 0.0225419 0.0225419 0.00913635 0.00913635 0.0238145 0.0238145 0.00464559 0.00464559 0.00701434 0.00701434 0.0848875 0.0848875 0.0267113 0.0267113 0.00656028 0.00656028 0.00390219 0.00390219 0.000384741 0.000384741 0.0127293 0.0127293 0.0715797 0.0715797 0.00949397 0.00949397 0.000939142 0.000939142 0.000325014 0.000325014 0.0125139 0.0125139 0.0158442 0.0158442 0.0329565 0.0329565 0.0036651 0.0036651 0.0713107 0.0713107 0.0750859 0.0750859 0.00593919 0.00593919 0.0142058 0.0142058 0.00142414 0.00142414 0.0253542 0.0253542 0.00334854 0.00334854 0.0158052 0.0158052 0.00835537 0.00835537 0.0267071 0.0267071 0.0262667 0.0262667 0.0123983 0.0123983 0.025091 0.025091 0.0888601 0.0888601 0.029165 0.029165 0.000845308 0.000845308 0.0444466 0.0444466 0.0113548 0.0113548 0.0503977 0.0503977 0.0793736 0.0793736 0.0035746 0.0035746 0.0165565 0.0165565 0.002247 0.002247 0.00496586 0.00496586 0.011169 0.011169 0.0208203 0.0208203 0.00113835 0.00113835 0.00841019 0.00841019 0.000611701 0.000611701 0.00318632 0.00318632 0.0352854 0.0352854 0.0199305 0.0199305 0.012664 0.012664 0.0451979 0.0451979 0.00414801 0.00414801 0.037292 0.037292 0.0117792 0.0117792 0.00306105 0.00306105 0.043656 0.043656 0.0228402 0.0228402 0.00616352 0.00616352 0.0116369 0.0116369 0.062381 0.062381 0.0984496 0.0984496 0.0654809 0.0654809 0.0692293 0.0692293 0.00192391 0.00192391 0.00278151 0.00278151 0.00473775 0.00473775 0.0194023 0.0194023 0.00868237 0.00868237 0.00034912 0.00034912 0.0107522 0.0107522 0.0125367 0.0125367 0.00143847 0.00143847 0.00265887 0.00265887 0.00918645 0.00918645 0.00821434 0.00821434 0.00601385 0.00601385 0.058376 0.058376 0.00676539 0.00676539 0.0167098 0.0167098 0.000317137 0.000317137 0.000141869 0.000141869 0.0425903 0.0425903 0.0386016 0.0386016 0.0372831 0.0372831 0.0175359 0.0175359 0.0220478 0.0220478 0 0 0.00246679 0.00246679 0.00908117 0.00908117 0.0528425 0.0528425 0.041214 0.041214 0.0100839 0.0100839 0.0293158 0.0293158 0.0281342 0.0281342 0.0020135 0.0020135 0.0195952 0.0195952 0.00142515 0.00142515 0.0128992 0.0128992 0.01547 0.01547 0.0116477 0.0116477 0.0995898 0.0995898 0.0492322 0.0492322 0.0039257 0.0039257 0.0241955 0.0241955 0.00541758 0.00541758 0.00177991 0.00177991 0.0226116 0.0226116 0.00324506 0.00324506 0.0229863 0.0229863 0.06128 0.06128 0.0658433 0.0658433 0.0108244 0.0108244 0.161313 0.161313 0.0253077 0.0253077 0.000136833 0.000136833 0.0135263 0.0135263 0.0101686 0.0101686 0.00107012 0.00107012 0.0022146 0.0022146 0.016345 0.016345 0.000316504 0.000316504 0.0044227 0.0044227 0.00581339 0.00581339 0.00574373 0.00574373 0.0355334 0.0355334 0.00217412 0.00217412 0.000301286 0.000301286 0.0312929 0.0312929 0.0305254 0.0305254 0.0101335 0.0101335 0.00273935 0.00273935 0.00159647 0.00159647 0.011342 0.011342 0.00479882 0.00479882 0.0156417 0.0156417 0.0225103 0.0225103 0.0172643 0.0172643 0.0407028 0.0407028 0.00169462 0.00169462 0.0240751 0.0240751 0.0130092 0.0130092 0.0162335 0.0162335 0.00584768 0.00584768 0.0820115 0.0820115 0.00183651 0.00183651 0.00142684 0.00142684 0.00115661 0.00115661 0.00369878 0.00369878 0.000384114 0.000384114 0.0101202 0.0101202 0.00405236 0.00405236 0.00170111 0.00170111 0.0427774 0.0427774 0.0345322 0.0345322 0.00260327 0.00260327 0.0147479 0.0147479 0.00255679 0.00255679 0.00279913 0.00279913 0.0415315 0.0415315 0.000940646 0.000940646 0.0299607 0.0299607 0.0394623 0.0394623 0.0029349 0.0029349 0.0166984 0.0166984 0.0437583 0.0437583 0.25892 0.25892 0.0769017 0.0769017 0.0469378 0.0469378 0.00298143 0.00298143 0.039282 0.039282 0.00148406 0.00148406 0.0167212 0.0167212 0.0778163 0.0778163 0.0229306 0.0229306 0.0177982 0.0177982 0.000926682 0.000926682 0.0717334 0.0717334 0.00156142 0.00156142 0.0306485 0.0306485 0.000508527 0.000508527 0 0 0.0037866 0.0037866 0.0165075 0.0165075 0.000636902 0.000636902 0.00357797 0.00357797 0.00147135 0.00147135 0.0273746 0.0273746 0.00815072 0.00815072 0.00290872 0.00290872 0.00184461 0.00184461 0.00435861 0.00435861 0.000254185 0.000254185 0.045794 0.045794 0.00191708 0.00191708 0.0252698 0.0252698 0.0209207 0.0209207 0.0408598 0.0408598 0.00759304 0.00759304 0.0251322 0.0251322 0.0575281 0.0575281 0.0636558 0.0636558 0.0606235 0.0606235 0.00303161 0.00303161 0.00246381 0.00246381 0.0726536 0.0726536 0.0108755 0.0108755 0.00414375 0.00414375 0.0108831 0.0108831 0.000978081 0.000978081 0.0605762 0.0605762 0.017428 0.017428 0.0291861 0.0291861 0.00242586 0.00242586 0.0142961 0.0142961 0.0248501 0.0248501 0.0181295 0.0181295 0.0102372 0.0102372 0.0392817 0.0392817 0.00850014 0.00850014 0.0140537 0.0140537 0.00495959 0.00495959 0.00608689 0.00608689 0.0274083 0.0274083 0.000557794 0.000557794 0.00499464 0.00499464 0.00922552 0.00922552 0.000106624 0.000106624 0.0019351 0.0019351 0.150354 0.150354 0.196518 0.196518 0.0539319 0.0539319 0.121579 0.121579 0.084044 0.084044 0.0864205 0.0864205 0.00213806 0.00213806 0.00617097 0.00617097 0.0028561 0.0028561 0.000149041 0.000149041 0.000275428 0.000275428 0.0102698 0.0102698 0.00998524 0.00998524 0.0473381 0.0473381 0.0356436 0.0356436 0.0115461 0.0115461 0.00310735 0.00310735 0.0664802 0.0664802 0.0215845 0.0215845 0.000801937 0.000801937 0.114992 0.114992 0.0138134 0.0138134 0.00210286 0.00210286 0.00769918 0.00769918 0.00463917 0.00463917 0.0299353 0.0299353 0.0019426 0.0019426 0.00289304 0.00289304 0.0579959 0.0579959 0.0445377 0.0445377 0.0171001 0.0171001 0.0219635 0.0219635 0.0652329 0.0652329 0.00111635 0.00111635 0.0528033 0.0528033 0.0390366 0.0390366 0.175076 0.175076 0.1797 0.1797 0.437905 0.437905 0.235648 0.235648 0.0507737 0.0507737 0.0501663 0.0501663 0.0115277 0.0115277 0.00544104 0.00544104 0.0128954 0.0128954 0.00134604 0.00134604 0.00481002 0.00481002 0.00562233 0.00562233 0.00316025 0.00316025 0 0 0 0 0.0262974 0.0262974 0.019108 0.019108 0.00105911 0.00105911 0.0224247 0.0224247 0.000250858 0.000250858 0.0410074 0.0410074 0.00301336 0.00301336 0.0134123 0.0134123 0.00443223 0.00443223 0.174383 0.174383 0.0330101 0.0330101 0.119066 0.119066 0.00916885 0.00916885 0.0490699 0.0490699 0.0671143 0.0671143 0.0174132 0.0174132 0.0405743 0.0405743 0.00294753 0.00294753 0.0136211 0.0136211 0.0018934 0.0018934 0.0120954 0.0120954 0.0485418 0.0485418 0.148799 0.148799 0.0236083 0.0236083 0.00336057 0.00336057 9.18751e-05 9.18751e-05 0.00421318 0.00421318 0.053875 0.053875 0.0219465 0.0219465 0.0109639 0.0109639 0.0125105 0.0125105 0.0313616 0.0313616 0.00897515 0.00897515 0.023836 0.023836 0.00696197 0.00696197 0.0154169 0.0154169 0.0522416 0.0522416 0.0012758 0.0012758 0.0976142 0.0976142 0.113436 0.113436 0.111418 0.111418 0.0618606 0.0618606 0.0336299 0.0336299 0.00449296 0.00449296 0.00044437 0.00044437 0 0 0.015063 0.015063 0.00741136 0.00741136 0.0178428 0.0178428 0.0059946 0.0059946 0.0129891 0.0129891 0.00532922 0.00532922 0.00289967 0.00289967 0.0174305 0.0174305 0.0247912 0.0247912 0.120642 0.120642 0.0182767 0.0182767 0.0205943 0.0205943 0.00202089 0.00202089 0.0250242 0.0250242 0.00677653 0.00677653 0.079849 0.079849 0.0599038 0.0599038 0.0799072 0.0799072 0.075123 0.075123 0.00133421 0.00133421 0.00139925 0.00139925 0.00179546 0.00179546 0.00122068 0.00122068 9.28503e-05 9.28503e-05 0.000543163 0.000543163 0.00687479 0.00687479 0.00124035 0.00124035 0.0069583 0.0069583 0.000652224 0.000652224 0.00187279 0.00187279 0.00351157 0.00351157 0.00853671 0.00853671 0.00236555 0.00236555 0.00800532 0.00800532 0.00743596 0.00743596 0.00290833 0.00290833 0.00251444 0.00251444 0.000575112 0.000575112 0.0154147 0.0154147 0.0026162 0.0026162 0.00707152 0.00707152 0.0903099 0.0903099 0.0395348 0.0395348 0.0139769 0.0139769 0.0270989 0.0270989 0.00255267 0.00255267 0.124899 0.124899 0.0745236 0.0745236 0.136594 0.136594 0.0387052 0.0387052 0.000675102 0.000675102 1.49754e-05 1.49754e-05 0.0081745 0.0081745 0.0108622 0.0108622 0.00716725 0.00716725 0.000607154 0.000607154 0.00814656 0.0081